REMARK SMILES C=C[C@@](C)(O)CC/C=C(\C)C(=O)OCC(C)(C)CC1=C(O)C(=O)c2ccccc2C1=O
REMARK SMILES IDX 11 1 12 2 9 3 8 4 10 5 7 6 6 7 3 8 4 9 2 10 1 11 5 12 13 14
REMARK SMILES IDX 14 15 15 16 16 17 17 18 18 19 19 20 20 21 30 22 22 23 29 24
REMARK SMILES IDX 31 25 23 26 24 27 28 28 25 29 27 30 26 31 21 32
REMARK H PARENT 5 13 21 33
ROOT
ATOM      1  C   UNL     1      -0.595   1.610   0.855  1.00  0.00     0.333 C 
ATOM      2  O   UNL     1      -0.865   1.362   2.022  1.00  0.00    -0.247 OA
ENDROOT
BRANCH   1   3
ATOM      3  C   UNL     1      -0.151   2.961   0.387  1.00  0.00     0.030 C 
ATOM      4  C   UNL     1      -0.125   3.267  -0.927  1.00  0.00    -0.016 C 
ATOM      5  C   UNL     1       0.250   3.885   1.500  1.00  0.00     0.052 C 
BRANCH   4   6
ATOM      6  C   UNL     1       0.275   4.577  -1.540  1.00  0.00     0.031 C 
BRANCH   6   7
ATOM      7  C   UNL     1       1.765   4.717  -1.877  1.00  0.00     0.043 C 
BRANCH   7   8
ATOM      8  C   UNL     1       2.372   3.746  -2.917  1.00  0.00     0.080 C 
ATOM      9  C   UNL     1       2.692   2.372  -2.313  1.00  0.00     0.047 C 
BRANCH   8  10
ATOM     10  C   UNL     1       1.565   3.717  -4.194  1.00  0.00    -0.001 C 
ATOM     11  C   UNL     1       0.994   2.656  -4.782  1.00  0.00     0.007 C 
ENDBRANCH   8  10
BRANCH   8  12
ATOM     12  O   UNL     1       3.642   4.314  -3.283  1.00  0.00    -0.386 OA
ATOM     13  H   UNL     1       3.993   3.775  -4.013  1.00  0.00     0.211 HD
ENDBRANCH   8  12
ENDBRANCH   7   8
ENDBRANCH   6   7
ENDBRANCH   4   6
ENDBRANCH   1   3
BRANCH   1  14
ATOM     14  O   UNL     1      -0.618   0.715  -0.166  1.00  0.00    -0.462 OA
BRANCH  14  15
ATOM     15  C   UNL     1      -1.013  -0.615   0.210  1.00  0.00     0.240 C 
BRANCH  15  16
ATOM     16  C   UNL     1      -0.861  -1.576  -0.995  1.00  0.00     0.003 C 
ATOM     17  C   UNL     1       0.611  -1.613  -1.444  1.00  0.00     0.015 C 
ATOM     18  C   UNL     1      -1.700  -1.047  -2.180  1.00  0.00     0.015 C 
BRANCH  16  19
ATOM     19  C   UNL     1      -1.384  -3.001  -0.638  1.00  0.00     0.053 C 
BRANCH  19  20
ATOM     20  C   UNL     1      -0.704  -3.720   0.509  1.00  0.00     0.047 C 
ATOM     21  C   UNL     1      -1.151  -3.669   1.773  1.00  0.00     0.171 C 
ATOM     22  C   UNL     1       0.463  -4.586   0.175  1.00  0.00     0.193 C 
ATOM     23  C   UNL     1      -0.491  -4.398   2.886  1.00  0.00     0.228 C 
ATOM     24  C   UNL     1       1.160  -5.290   1.271  1.00  0.00     0.034 A 
ATOM     25  O   UNL     1       0.848  -4.723  -0.980  1.00  0.00    -0.289 OA
ATOM     26  O   UNL     1      -0.957  -4.309   4.018  1.00  0.00    -0.285 OA
ATOM     27  C   UNL     1       0.701  -5.197   2.581  1.00  0.00     0.037 A 
ATOM     28  C   UNL     1       2.293  -6.065   0.987  1.00  0.00     0.013 A 
ATOM     29  C   UNL     1       1.369  -5.869   3.612  1.00  0.00     0.013 A 
ATOM     30  C   UNL     1       2.959  -6.736   2.014  1.00  0.00     0.001 A 
ATOM     31  C   UNL     1       2.499  -6.637   3.326  1.00  0.00     0.001 A 
BRANCH  21  32
ATOM     32  O   UNL     1      -2.259  -2.911   2.116  1.00  0.00    -0.504 OA
ATOM     33  H   UNL     1      -2.362  -3.026   3.087  1.00  0.00     0.293 HD
ENDBRANCH  21  32
ENDBRANCH  19  20
ENDBRANCH  16  19
ENDBRANCH  15  16
ENDBRANCH  14  15
ENDBRANCH   1  14
TORSDOF 12
