MODEL 1
REMARK VINA RESULT:   -10.487      0.000      0.000
REMARK INTER + INTRA:         -18.078
REMARK INTER:                 -17.230
REMARK INTRA:                  -0.848
REMARK UNBOUND:                -0.848
REMARK SMILES C=C[C@@](C)(O)CC/C=C(\C)C(=O)OCC(C)(C)CC1=C(O)C(=O)c2ccccc2C1=O
REMARK SMILES IDX 11 1 12 2 9 3 8 4 10 5 7 6 6 7 3 8 4 9 2 10 1 11 5 12 13 14
REMARK SMILES IDX 14 15 15 16 16 17 17 18 18 19 19 20 20 21 30 22 22 23 29 24
REMARK SMILES IDX 31 25 23 26 24 27 28 28 25 29 27 30 26 31 21 32
REMARK H PARENT 5 13 21 33
ROOT
ATOM      1  C   UNL     1       6.065  -6.171  -4.866  1.00  0.00     0.333 C 
ATOM      2  O   UNL     1       6.249  -6.802  -3.834  1.00  0.00    -0.247 OA
ENDROOT
BRANCH   1   3
ATOM      3  C   UNL     1       6.666  -6.559  -6.181  1.00  0.00     0.030 C 
ATOM      4  C   UNL     1       6.222  -6.017  -7.334  1.00  0.00    -0.016 C 
ATOM      5  C   UNL     1       7.761  -7.580  -6.069  1.00  0.00     0.052 C 
BRANCH   4   6
ATOM      6  C   UNL     1       6.737  -6.292  -8.717  1.00  0.00     0.031 C 
BRANCH   6   7
ATOM      7  C   UNL     1       5.666  -6.383  -9.811  1.00  0.00     0.043 C 
BRANCH   7   8
ATOM      8  C   UNL     1       4.843  -5.113 -10.135  1.00  0.00     0.080 C 
ATOM      9  C   UNL     1       3.564  -5.433 -10.919  1.00  0.00     0.047 C 
BRANCH   8  10
ATOM     10  C   UNL     1       4.652  -4.244  -8.914  1.00  0.00    -0.001 C 
ATOM     11  C   UNL     1       3.499  -3.910  -8.315  1.00  0.00     0.007 C 
ENDBRANCH   8  10
BRANCH   8  12
ATOM     12  O   UNL     1       5.662  -4.338 -11.028  1.00  0.00    -0.386 OA
ATOM     13  H   UNL     1       5.233  -3.470 -11.124  1.00  0.00     0.211 HD
ENDBRANCH   8  12
ENDBRANCH   7   8
ENDBRANCH   6   7
ENDBRANCH   4   6
ENDBRANCH   1   3
BRANCH   1  14
ATOM     14  O   UNL     1       5.277  -5.072  -4.986  1.00  0.00    -0.462 OA
BRANCH  14  15
ATOM     15  C   UNL     1       4.604  -4.680  -3.778  1.00  0.00     0.240 C 
BRANCH  15  16
ATOM     16  C   UNL     1       5.282  -3.426  -3.173  1.00  0.00     0.003 C 
ATOM     17  C   UNL     1       6.282  -2.840  -4.186  1.00  0.00     0.015 C 
ATOM     18  C   UNL     1       6.077  -3.833  -1.912  1.00  0.00     0.015 C 
BRANCH  16  19
ATOM     19  C   UNL     1       4.217  -2.370  -2.746  1.00  0.00     0.053 C 
BRANCH  19  20
ATOM     20  C   UNL     1       2.865  -2.438  -3.426  1.00  0.00     0.047 C 
ATOM     21  C   UNL     1       1.766  -2.915  -2.824  1.00  0.00     0.171 C 
ATOM     22  C   UNL     1       2.763  -1.860  -4.797  1.00  0.00     0.193 C 
ATOM     23  C   UNL     1       0.440  -2.954  -3.492  1.00  0.00     0.228 C 
ATOM     24  C   UNL     1       1.463  -1.923  -5.497  1.00  0.00     0.034 A 
ATOM     25  O   UNL     1       3.726  -1.340  -5.346  1.00  0.00    -0.289 OA
ATOM     26  O   UNL     1      -0.525  -3.401  -2.880  1.00  0.00    -0.285 OA
ATOM     27  C   UNL     1       0.341  -2.453  -4.868  1.00  0.00     0.037 A 
ATOM     28  C   UNL     1       1.357  -1.436  -6.808  1.00  0.00     0.013 A 
ATOM     29  C   UNL     1      -0.886  -2.507  -5.540  1.00  0.00     0.013 A 
ATOM     30  C   UNL     1       0.134  -1.488  -7.478  1.00  0.00     0.001 A 
ATOM     31  C   UNL     1      -0.986  -2.025  -6.846  1.00  0.00     0.001 A 
BRANCH  21  32
ATOM     32  O   UNL     1       1.811  -3.420  -1.535  1.00  0.00    -0.504 OA
ATOM     33  H   UNL     1       2.759  -3.617  -1.366  1.00  0.00     0.293 HD
ENDBRANCH  21  32
ENDBRANCH  19  20
ENDBRANCH  16  19
ENDBRANCH  15  16
ENDBRANCH  14  15
ENDBRANCH   1  14
TORSDOF 12
ENDMDL
MODEL 2
REMARK VINA RESULT:   -10.416      1.580      6.554
REMARK INTER + INTRA:         -17.963
REMARK INTER:                 -16.321
REMARK INTRA:                  -1.642
REMARK UNBOUND:                -0.848
REMARK SMILES C=C[C@@](C)(O)CC/C=C(\C)C(=O)OCC(C)(C)CC1=C(O)C(=O)c2ccccc2C1=O
REMARK SMILES IDX 11 1 12 2 9 3 8 4 10 5 7 6 6 7 3 8 4 9 2 10 1 11 5 12 13 14
REMARK SMILES IDX 14 15 15 16 16 17 17 18 18 19 19 20 20 21 30 22 22 23 29 24
REMARK SMILES IDX 31 25 23 26 24 27 28 28 25 29 27 30 26 31 21 32
REMARK H PARENT 5 13 21 33
ROOT
ATOM      1  C   UNL     1       2.672  -2.728  -2.605  1.00  0.00     0.333 C 
ATOM      2  O   UNL     1       2.161  -3.069  -1.547  1.00  0.00    -0.247 OA
ENDROOT
BRANCH   1   3
ATOM      3  C   UNL     1       1.934  -2.730  -3.908  1.00  0.00     0.030 C 
ATOM      4  C   UNL     1       2.165  -1.780  -4.838  1.00  0.00    -0.016 C 
ATOM      5  C   UNL     1       0.949  -3.854  -4.044  1.00  0.00     0.052 C 
BRANCH   4   6
ATOM      6  C   UNL     1       1.521  -1.664  -6.189  1.00  0.00     0.031 C 
BRANCH   6   7
ATOM      7  C   UNL     1       0.251  -0.805  -6.239  1.00  0.00     0.043 C 
BRANCH   7   8
ATOM      8  C   UNL     1      -1.118  -1.525  -6.206  1.00  0.00     0.080 C 
ATOM      9  C   UNL     1      -1.057  -2.921  -6.839  1.00  0.00     0.047 C 
BRANCH   8  10
ATOM     10  C   UNL     1      -1.748  -1.466  -4.834  1.00  0.00    -0.001 C 
ATOM     11  C   UNL     1      -1.248  -0.905  -3.723  1.00  0.00     0.007 C 
ENDBRANCH   8  10
BRANCH   8  12
ATOM     12  O   UNL     1      -1.984  -0.751  -7.055  1.00  0.00    -0.386 OA
ATOM     13  H   UNL     1      -1.806   0.186  -6.861  1.00  0.00     0.211 HD
ENDBRANCH   8  12
ENDBRANCH   7   8
ENDBRANCH   6   7
ENDBRANCH   4   6
ENDBRANCH   1   3
BRANCH   1  14
ATOM     14  O   UNL     1       3.941  -2.271  -2.755  1.00  0.00    -0.462 OA
BRANCH  14  15
ATOM     15  C   UNL     1       4.933  -2.995  -2.007  1.00  0.00     0.240 C 
BRANCH  15  16
ATOM     16  C   UNL     1       5.857  -3.781  -2.970  1.00  0.00     0.003 C 
ATOM     17  C   UNL     1       7.076  -4.314  -2.195  1.00  0.00     0.015 C 
ATOM     18  C   UNL     1       6.380  -2.828  -4.068  1.00  0.00     0.015 C 
BRANCH  16  19
ATOM     19  C   UNL     1       5.077  -4.935  -3.670  1.00  0.00     0.053 C 
BRANCH  19  20
ATOM     20  C   UNL     1       5.606  -5.417  -5.005  1.00  0.00     0.047 C 
ATOM     21  C   UNL     1       6.525  -6.388  -5.121  1.00  0.00     0.171 C 
ATOM     22  C   UNL     1       4.999  -4.828  -6.232  1.00  0.00     0.193 C 
ATOM     23  C   UNL     1       7.019  -6.870  -6.436  1.00  0.00     0.228 C 
ATOM     24  C   UNL     1       5.502  -5.263  -7.552  1.00  0.00     0.034 A 
ATOM     25  O   UNL     1       4.099  -3.999  -6.166  1.00  0.00    -0.289 OA
ATOM     26  O   UNL     1       7.858  -7.766  -6.468  1.00  0.00    -0.285 OA
ATOM     27  C   UNL     1       6.479  -6.248  -7.650  1.00  0.00     0.037 A 
ATOM     28  C   UNL     1       4.984  -4.682  -8.717  1.00  0.00     0.013 A 
ATOM     29  C   UNL     1       6.948  -6.653  -8.906  1.00  0.00     0.013 A 
ATOM     30  C   UNL     1       5.450  -5.086  -9.969  1.00  0.00     0.001 A 
ATOM     31  C   UNL     1       6.433  -6.070 -10.064  1.00  0.00     0.001 A 
BRANCH  21  32
ATOM     32  O   UNL     1       7.081  -6.992  -4.005  1.00  0.00    -0.504 OA
ATOM     33  H   UNL     1       7.037  -7.958  -4.183  1.00  0.00     0.293 HD
ENDBRANCH  21  32
ENDBRANCH  19  20
ENDBRANCH  16  19
ENDBRANCH  15  16
ENDBRANCH  14  15
ENDBRANCH   1  14
TORSDOF 12
ENDMDL
MODEL 3
REMARK VINA RESULT:   -10.201      1.740      6.471
REMARK INTER + INTRA:         -17.609
REMARK INTER:                 -16.257
REMARK INTRA:                  -1.352
REMARK UNBOUND:                -0.848
REMARK SMILES C=C[C@@](C)(O)CC/C=C(\C)C(=O)OCC(C)(C)CC1=C(O)C(=O)c2ccccc2C1=O
REMARK SMILES IDX 11 1 12 2 9 3 8 4 10 5 7 6 6 7 3 8 4 9 2 10 1 11 5 12 13 14
REMARK SMILES IDX 14 15 15 16 16 17 17 18 18 19 19 20 20 21 30 22 22 23 29 24
REMARK SMILES IDX 31 25 23 26 24 27 28 28 25 29 27 30 26 31 21 32
REMARK H PARENT 5 13 21 33
ROOT
ATOM      1  C   UNL     1       3.495  -2.538  -2.636  1.00  0.00     0.333 C 
ATOM      2  O   UNL     1       4.047  -1.525  -3.043  1.00  0.00    -0.247 OA
ENDROOT
BRANCH   1   3
ATOM      3  C   UNL     1       2.043  -2.825  -2.859  1.00  0.00     0.030 C 
ATOM      4  C   UNL     1       1.593  -3.238  -4.063  1.00  0.00    -0.016 C 
ATOM      5  C   UNL     1       1.189  -2.602  -1.645  1.00  0.00     0.052 C 
BRANCH   4   6
ATOM      6  C   UNL     1       0.179  -3.580  -4.428  1.00  0.00     0.031 C 
BRANCH   6   7
ATOM      7  C   UNL     1      -0.258  -3.155  -5.835  1.00  0.00     0.043 C 
BRANCH   7   8
ATOM      8  C   UNL     1      -0.880  -1.749  -6.013  1.00  0.00     0.080 C 
ATOM      9  C   UNL     1      -1.497  -1.218  -4.712  1.00  0.00     0.047 C 
BRANCH   8  10
ATOM     10  C   UNL     1       0.067  -0.802  -6.711  1.00  0.00    -0.001 C 
ATOM     11  C   UNL     1       1.373  -0.980  -6.961  1.00  0.00     0.007 C 
ENDBRANCH   8  10
BRANCH   8  12
ATOM     12  O   UNL     1      -1.981  -1.924  -6.922  1.00  0.00    -0.386 OA
ATOM     13  H   UNL     1      -2.580  -2.577  -6.518  1.00  0.00     0.211 HD
ENDBRANCH   8  12
ENDBRANCH   7   8
ENDBRANCH   6   7
ENDBRANCH   4   6
ENDBRANCH   1   3
BRANCH   1  14
ATOM     14  O   UNL     1       4.104  -3.552  -1.969  1.00  0.00    -0.462 OA
BRANCH  14  15
ATOM     15  C   UNL     1       5.519  -3.381  -1.778  1.00  0.00     0.240 C 
BRANCH  15  16
ATOM     16  C   UNL     1       6.301  -4.213  -2.824  1.00  0.00     0.003 C 
ATOM     17  C   UNL     1       7.432  -4.989  -2.126  1.00  0.00     0.015 C 
ATOM     18  C   UNL     1       6.951  -3.260  -3.852  1.00  0.00     0.015 C 
BRANCH  16  19
ATOM     19  C   UNL     1       5.346  -5.172  -3.599  1.00  0.00     0.053 C 
BRANCH  19  20
ATOM     20  C   UNL     1       5.717  -5.512  -5.028  1.00  0.00     0.047 C 
ATOM     21  C   UNL     1       6.590  -6.479  -5.347  1.00  0.00     0.171 C 
ATOM     22  C   UNL     1       4.999  -4.781  -6.111  1.00  0.00     0.193 C 
ATOM     23  C   UNL     1       6.928  -6.821  -6.752  1.00  0.00     0.228 C 
ATOM     24  C   UNL     1       5.347  -5.076  -7.516  1.00  0.00     0.034 A 
ATOM     25  O   UNL     1       4.135  -3.950  -5.858  1.00  0.00    -0.289 OA
ATOM     26  O   UNL     1       7.734  -7.721  -6.971  1.00  0.00    -0.285 OA
ATOM     27  C   UNL     1       6.281  -6.060  -7.826  1.00  0.00     0.037 A 
ATOM     28  C   UNL     1       4.725  -4.361  -8.549  1.00  0.00     0.013 A 
ATOM     29  C   UNL     1       6.602  -6.332  -9.161  1.00  0.00     0.013 A 
ATOM     30  C   UNL     1       5.044  -4.632  -9.881  1.00  0.00     0.001 A 
ATOM     31  C   UNL     1       5.984  -5.616 -10.187  1.00  0.00     0.001 A 
BRANCH  21  32
ATOM     32  O   UNL     1       7.245  -7.211  -4.369  1.00  0.00    -0.504 OA
ATOM     33  H   UNL     1       7.638  -6.543  -3.764  1.00  0.00     0.293 HD
ENDBRANCH  21  32
ENDBRANCH  19  20
ENDBRANCH  16  19
ENDBRANCH  15  16
ENDBRANCH  14  15
ENDBRANCH   1  14
TORSDOF 12
ENDMDL
MODEL 4
REMARK VINA RESULT:   -10.024      1.792      6.132
REMARK INTER + INTRA:         -17.318
REMARK INTER:                 -15.630
REMARK INTRA:                  -1.689
REMARK UNBOUND:                -0.848
REMARK SMILES C=C[C@@](C)(O)CC/C=C(\C)C(=O)OCC(C)(C)CC1=C(O)C(=O)c2ccccc2C1=O
REMARK SMILES IDX 11 1 12 2 9 3 8 4 10 5 7 6 6 7 3 8 4 9 2 10 1 11 5 12 13 14
REMARK SMILES IDX 14 15 15 16 16 17 17 18 18 19 19 20 20 21 30 22 22 23 29 24
REMARK SMILES IDX 31 25 23 26 24 27 28 28 25 29 27 30 26 31 21 32
REMARK H PARENT 5 13 21 33
ROOT
ATOM      1  C   UNL     1       3.408  -2.620  -2.363  1.00  0.00     0.333 C 
ATOM      2  O   UNL     1       3.912  -1.530  -2.591  1.00  0.00    -0.247 OA
ENDROOT
BRANCH   1   3
ATOM      3  C   UNL     1       1.978  -2.941  -2.670  1.00  0.00     0.030 C 
ATOM      4  C   UNL     1       1.598  -3.292  -3.916  1.00  0.00    -0.016 C 
ATOM      5  C   UNL     1       1.063  -2.823  -1.486  1.00  0.00     0.052 C 
BRANCH   4   6
ATOM      6  C   UNL     1       0.214  -3.658  -4.367  1.00  0.00     0.031 C 
BRANCH   6   7
ATOM      7  C   UNL     1      -0.156  -3.206  -5.786  1.00  0.00     0.043 C 
BRANCH   7   8
ATOM      8  C   UNL     1      -0.872  -1.846  -5.955  1.00  0.00     0.080 C 
ATOM      9  C   UNL     1      -1.427  -1.312  -4.627  1.00  0.00     0.047 C 
BRANCH   8  10
ATOM     10  C   UNL     1      -0.036  -0.867  -6.745  1.00  0.00    -0.001 C 
ATOM     11  C   UNL     1       1.287  -0.668  -6.669  1.00  0.00     0.007 C 
ENDBRANCH   8  10
BRANCH   8  12
ATOM     12  O   UNL     1      -2.023  -2.113  -6.776  1.00  0.00    -0.386 OA
ATOM     13  H   UNL     1      -1.760  -2.796  -7.417  1.00  0.00     0.211 HD
ENDBRANCH   8  12
ENDBRANCH   7   8
ENDBRANCH   6   7
ENDBRANCH   4   6
ENDBRANCH   1   3
BRANCH   1  14
ATOM     14  O   UNL     1       4.056  -3.694  -1.843  1.00  0.00    -0.462 OA
BRANCH  14  15
ATOM     15  C   UNL     1       5.490  -3.597  -1.861  1.00  0.00     0.240 C 
BRANCH  15  16
ATOM     16  C   UNL     1       6.070  -4.487  -2.988  1.00  0.00     0.003 C 
ATOM     17  C   UNL     1       5.013  -5.517  -3.428  1.00  0.00     0.015 C 
ATOM     18  C   UNL     1       7.289  -5.268  -2.447  1.00  0.00     0.015 C 
BRANCH  16  19
ATOM     19  C   UNL     1       6.553  -3.618  -4.189  1.00  0.00     0.053 C 
BRANCH  19  20
ATOM     20  C   UNL     1       5.911  -3.881  -5.536  1.00  0.00     0.047 C 
ATOM     21  C   UNL     1       4.873  -3.172  -6.003  1.00  0.00     0.171 C 
ATOM     22  C   UNL     1       6.537  -4.926  -6.397  1.00  0.00     0.193 C 
ATOM     23  C   UNL     1       4.267  -3.422  -7.336  1.00  0.00     0.228 C 
ATOM     24  C   UNL     1       5.928  -5.220  -7.710  1.00  0.00     0.034 A 
ATOM     25  O   UNL     1       7.536  -5.536  -6.038  1.00  0.00    -0.289 OA
ATOM     26  O   UNL     1       3.321  -2.731  -7.701  1.00  0.00    -0.285 OA
ATOM     27  C   UNL     1       4.829  -4.495  -8.163  1.00  0.00     0.037 A 
ATOM     28  C   UNL     1       6.466  -6.236  -8.512  1.00  0.00     0.013 A 
ATOM     29  C   UNL     1       4.261  -4.782  -9.410  1.00  0.00     0.013 A 
ATOM     30  C   UNL     1       5.900  -6.522  -9.756  1.00  0.00     0.001 A 
ATOM     31  C   UNL     1       4.797  -5.797 -10.204  1.00  0.00     0.001 A 
BRANCH  21  32
ATOM     32  O   UNL     1       4.292  -2.163  -5.252  1.00  0.00    -0.504 OA
ATOM     33  H   UNL     1       3.337  -2.184  -5.483  1.00  0.00     0.293 HD
ENDBRANCH  21  32
ENDBRANCH  19  20
ENDBRANCH  16  19
ENDBRANCH  15  16
ENDBRANCH  14  15
ENDBRANCH   1  14
TORSDOF 12
ENDMDL
MODEL 5
REMARK VINA RESULT:   -10.010      1.007      1.412
REMARK INTER + INTRA:         -17.295
REMARK INTER:                 -15.974
REMARK INTRA:                  -1.321
REMARK UNBOUND:                -0.848
REMARK SMILES C=C[C@@](C)(O)CC/C=C(\C)C(=O)OCC(C)(C)CC1=C(O)C(=O)c2ccccc2C1=O
REMARK SMILES IDX 11 1 12 2 9 3 8 4 10 5 7 6 6 7 3 8 4 9 2 10 1 11 5 12 13 14
REMARK SMILES IDX 14 15 15 16 16 17 17 18 18 19 19 20 20 21 30 22 22 23 29 24
REMARK SMILES IDX 31 25 23 26 24 27 28 28 25 29 27 30 26 31 21 32
REMARK H PARENT 5 13 21 33
ROOT
ATOM      1  C   UNL     1       6.473  -6.378  -3.514  1.00  0.00     0.333 C 
ATOM      2  O   UNL     1       7.089  -6.531  -2.468  1.00  0.00    -0.247 OA
ENDROOT
BRANCH   1   3
ATOM      3  C   UNL     1       6.935  -6.937  -4.824  1.00  0.00     0.030 C 
ATOM      4  C   UNL     1       6.480  -6.435  -5.992  1.00  0.00    -0.016 C 
ATOM      5  C   UNL     1       7.909  -8.070  -4.689  1.00  0.00     0.052 C 
BRANCH   4   6
ATOM      6  C   UNL     1       6.864  -6.876  -7.373  1.00  0.00     0.031 C 
BRANCH   6   7
ATOM      7  C   UNL     1       6.777  -5.794  -8.457  1.00  0.00     0.043 C 
BRANCH   7   8
ATOM      8  C   UNL     1       5.944  -6.096  -9.725  1.00  0.00     0.080 C 
ATOM      9  C   UNL     1       5.437  -7.544  -9.756  1.00  0.00     0.047 C 
BRANCH   8  10
ATOM     10  C   UNL     1       4.893  -5.039  -9.970  1.00  0.00    -0.001 C 
ATOM     11  C   UNL     1       4.178  -4.364  -9.059  1.00  0.00     0.007 C 
ENDBRANCH   8  10
BRANCH   8  12
ATOM     12  O   UNL     1       6.861  -5.983 -10.827  1.00  0.00    -0.386 OA
ATOM     13  H   UNL     1       6.752  -5.089 -11.195  1.00  0.00     0.211 HD
ENDBRANCH   8  12
ENDBRANCH   7   8
ENDBRANCH   6   7
ENDBRANCH   4   6
ENDBRANCH   1   3
BRANCH   1  14
ATOM     14  O   UNL     1       5.288  -5.729  -3.642  1.00  0.00    -0.462 OA
BRANCH  14  15
ATOM     15  C   UNL     1       5.243  -4.432  -3.023  1.00  0.00     0.240 C 
BRANCH  15  16
ATOM     16  C   UNL     1       5.149  -3.329  -4.105  1.00  0.00     0.003 C 
ATOM     17  C   UNL     1       4.562  -3.922  -5.398  1.00  0.00     0.015 C 
ATOM     18  C   UNL     1       6.567  -2.808  -4.429  1.00  0.00     0.015 C 
BRANCH  16  19
ATOM     19  C   UNL     1       4.303  -2.122  -3.596  1.00  0.00     0.053 C 
BRANCH  19  20
ATOM     20  C   UNL     1       2.813  -2.158  -3.869  1.00  0.00     0.047 C 
ATOM     21  C   UNL     1       1.917  -2.628  -2.988  1.00  0.00     0.171 C 
ATOM     22  C   UNL     1       2.341  -1.557  -5.150  1.00  0.00     0.193 C 
ATOM     23  C   UNL     1       0.457  -2.635  -3.257  1.00  0.00     0.228 C 
ATOM     24  C   UNL     1       0.896  -1.588  -5.457  1.00  0.00     0.034 A 
ATOM     25  O   UNL     1       3.121  -1.043  -5.942  1.00  0.00    -0.289 OA
ATOM     26  O   UNL     1      -0.306  -3.078  -2.403  1.00  0.00    -0.285 OA
ATOM     27  C   UNL     1      -0.014  -2.112  -4.544  1.00  0.00     0.037 A 
ATOM     28  C   UNL     1       0.436  -1.080  -6.679  1.00  0.00     0.013 A 
ATOM     29  C   UNL     1      -1.381  -2.136  -4.845  1.00  0.00     0.013 A 
ATOM     30  C   UNL     1      -0.927  -1.102  -6.980  1.00  0.00     0.001 A 
ATOM     31  C   UNL     1      -1.835  -1.632  -6.065  1.00  0.00     0.001 A 
BRANCH  21  32
ATOM     32  O   UNL     1       2.313  -3.153  -1.769  1.00  0.00    -0.504 OA
ATOM     33  H   UNL     1       1.486  -3.249  -1.246  1.00  0.00     0.293 HD
ENDBRANCH  21  32
ENDBRANCH  19  20
ENDBRANCH  16  19
ENDBRANCH  15  16
ENDBRANCH  14  15
ENDBRANCH   1  14
TORSDOF 12
ENDMDL
MODEL 6
REMARK VINA RESULT:    -9.597      1.662      5.755
REMARK INTER + INTRA:         -16.616
REMARK INTER:                 -14.787
REMARK INTRA:                  -1.829
REMARK UNBOUND:                -0.848
REMARK SMILES C=C[C@@](C)(O)CC/C=C(\C)C(=O)OCC(C)(C)CC1=C(O)C(=O)c2ccccc2C1=O
REMARK SMILES IDX 11 1 12 2 9 3 8 4 10 5 7 6 6 7 3 8 4 9 2 10 1 11 5 12 13 14
REMARK SMILES IDX 14 15 15 16 16 17 17 18 18 19 19 20 20 21 30 22 22 23 29 24
REMARK SMILES IDX 31 25 23 26 24 27 28 28 25 29 27 30 26 31 21 32
REMARK H PARENT 5 13 21 33
ROOT
ATOM      1  C   UNL     1       1.463  -1.291  -6.312  1.00  0.00     0.333 C 
ATOM      2  O   UNL     1       1.311  -0.165  -6.766  1.00  0.00    -0.247 OA
ENDROOT
BRANCH   1   3
ATOM      3  C   UNL     1       1.597  -2.508  -7.173  1.00  0.00     0.030 C 
ATOM      4  C   UNL     1       2.790  -2.861  -7.695  1.00  0.00    -0.016 C 
ATOM      5  C   UNL     1       0.308  -3.248  -7.381  1.00  0.00     0.052 C 
BRANCH   4   6
ATOM      6  C   UNL     1       3.081  -4.057  -8.554  1.00  0.00     0.031 C 
BRANCH   6   7
ATOM      7  C   UNL     1       4.566  -4.322  -8.832  1.00  0.00     0.043 C 
BRANCH   7   8
ATOM      8  C   UNL     1       4.961  -4.870 -10.223  1.00  0.00     0.080 C 
ATOM      9  C   UNL     1       5.356  -3.753 -11.199  1.00  0.00     0.047 C 
BRANCH   8  10
ATOM     10  C   UNL     1       5.946  -6.011 -10.117  1.00  0.00    -0.001 C 
ATOM     11  C   UNL     1       5.702  -7.276  -9.747  1.00  0.00     0.007 C 
ENDBRANCH   8  10
BRANCH   8  12
ATOM     12  O   UNL     1       3.763  -5.452 -10.766  1.00  0.00    -0.386 OA
ATOM     13  H   UNL     1       3.740  -5.224 -11.711  1.00  0.00     0.211 HD
ENDBRANCH   8  12
ENDBRANCH   7   8
ENDBRANCH   6   7
ENDBRANCH   4   6
ENDBRANCH   1   3
BRANCH   1  14
ATOM     14  O   UNL     1       1.568  -1.601  -4.995  1.00  0.00    -0.462 OA
BRANCH  14  15
ATOM     15  C   UNL     1       2.860  -1.344  -4.418  1.00  0.00     0.240 C 
BRANCH  15  16
ATOM     16  C   UNL     1       3.299  -2.541  -3.539  1.00  0.00     0.003 C 
ATOM     17  C   UNL     1       2.766  -3.851  -4.147  1.00  0.00     0.015 C 
ATOM     18  C   UNL     1       2.684  -2.393  -2.129  1.00  0.00     0.015 C 
BRANCH  16  19
ATOM     19  C   UNL     1       4.850  -2.575  -3.382  1.00  0.00     0.053 C 
BRANCH  19  20
ATOM     20  C   UNL     1       5.538  -3.906  -3.602  1.00  0.00     0.047 C 
ATOM     21  C   UNL     1       5.735  -4.799  -2.620  1.00  0.00     0.171 C 
ATOM     22  C   UNL     1       5.928  -4.250  -4.999  1.00  0.00     0.193 C 
ATOM     23  C   UNL     1       6.389  -6.113  -2.851  1.00  0.00     0.228 C 
ATOM     24  C   UNL     1       6.615  -5.534  -5.248  1.00  0.00     0.034 A 
ATOM     25  O   UNL     1       5.689  -3.495  -5.934  1.00  0.00    -0.289 OA
ATOM     26  O   UNL     1       6.532  -6.883  -1.906  1.00  0.00    -0.285 OA
ATOM     27  C   UNL     1       6.840  -6.433  -4.210  1.00  0.00     0.037 A 
ATOM     28  C   UNL     1       7.040  -5.853  -6.545  1.00  0.00     0.013 A 
ATOM     29  C   UNL     1       7.492  -7.647  -4.457  1.00  0.00     0.013 A 
ATOM     30  C   UNL     1       7.689  -7.064  -6.792  1.00  0.00     0.001 A 
ATOM     31  C   UNL     1       7.917  -7.960  -5.749  1.00  0.00     0.001 A 
BRANCH  21  32
ATOM     32  O   UNL     1       5.346  -4.535  -1.316  1.00  0.00    -0.504 OA
ATOM     33  H   UNL     1       6.049  -3.954  -0.949  1.00  0.00     0.293 HD
ENDBRANCH  21  32
ENDBRANCH  19  20
ENDBRANCH  16  19
ENDBRANCH  15  16
ENDBRANCH  14  15
ENDBRANCH   1  14
TORSDOF 12
ENDMDL
MODEL 7
REMARK VINA RESULT:    -9.571      1.587      6.529
REMARK INTER + INTRA:         -16.573
REMARK INTER:                 -15.109
REMARK INTRA:                  -1.465
REMARK UNBOUND:                -0.848
REMARK SMILES C=C[C@@](C)(O)CC/C=C(\C)C(=O)OCC(C)(C)CC1=C(O)C(=O)c2ccccc2C1=O
REMARK SMILES IDX 11 1 12 2 9 3 8 4 10 5 7 6 6 7 3 8 4 9 2 10 1 11 5 12 13 14
REMARK SMILES IDX 14 15 15 16 16 17 17 18 18 19 19 20 20 21 30 22 22 23 29 24
REMARK SMILES IDX 31 25 23 26 24 27 28 28 25 29 27 30 26 31 21 32
REMARK H PARENT 5 13 21 33
ROOT
ATOM      1  C   UNL     1       2.479  -2.930  -2.196  1.00  0.00     0.333 C 
ATOM      2  O   UNL     1       2.402  -3.230  -1.013  1.00  0.00    -0.247 OA
ENDROOT
BRANCH   1   3
ATOM      3  C   UNL     1       1.306  -2.958  -3.126  1.00  0.00     0.030 C 
ATOM      4  C   UNL     1       0.258  -2.126  -2.947  1.00  0.00    -0.016 C 
ATOM      5  C   UNL     1       1.425  -3.979  -4.220  1.00  0.00     0.052 C 
BRANCH   4   6
ATOM      6  C   UNL     1      -0.970  -2.027  -3.803  1.00  0.00     0.031 C 
BRANCH   6   7
ATOM      7  C   UNL     1      -0.881  -1.033  -4.968  1.00  0.00     0.043 C 
BRANCH   7   8
ATOM      8  C   UNL     1      -0.664  -1.597  -6.392  1.00  0.00     0.080 C 
ATOM      9  C   UNL     1      -1.764  -1.155  -7.367  1.00  0.00     0.047 C 
BRANCH   8  10
ATOM     10  C   UNL     1       0.751  -1.374  -6.873  1.00  0.00    -0.001 C 
ATOM     11  C   UNL     1       1.797  -0.918  -6.168  1.00  0.00     0.007 C 
ENDBRANCH   8  10
BRANCH   8  12
ATOM     12  O   UNL     1      -0.803  -3.023  -6.271  1.00  0.00    -0.386 OA
ATOM     13  H   UNL     1       0.073  -3.409  -6.442  1.00  0.00     0.211 HD
ENDBRANCH   8  12
ENDBRANCH   7   8
ENDBRANCH   6   7
ENDBRANCH   4   6
ENDBRANCH   1   3
BRANCH   1  14
ATOM     14  O   UNL     1       3.601  -2.501  -2.829  1.00  0.00    -0.462 OA
BRANCH  14  15
ATOM     15  C   UNL     1       4.828  -2.792  -2.139  1.00  0.00     0.240 C 
BRANCH  15  16
ATOM     16  C   UNL     1       5.773  -3.610  -3.055  1.00  0.00     0.003 C 
ATOM     17  C   UNL     1       6.979  -4.109  -2.239  1.00  0.00     0.015 C 
ATOM     18  C   UNL     1       6.311  -2.697  -4.179  1.00  0.00     0.015 C 
BRANCH  16  19
ATOM     19  C   UNL     1       5.009  -4.793  -3.725  1.00  0.00     0.053 C 
BRANCH  19  20
ATOM     20  C   UNL     1       5.523  -5.277  -5.065  1.00  0.00     0.047 C 
ATOM     21  C   UNL     1       6.442  -6.247  -5.189  1.00  0.00     0.171 C 
ATOM     22  C   UNL     1       4.900  -4.692  -6.287  1.00  0.00     0.193 C 
ATOM     23  C   UNL     1       6.921  -6.732  -6.509  1.00  0.00     0.228 C 
ATOM     24  C   UNL     1       5.389  -5.130  -7.611  1.00  0.00     0.034 A 
ATOM     25  O   UNL     1       4.000  -3.864  -6.212  1.00  0.00    -0.289 OA
ATOM     26  O   UNL     1       7.761  -7.626  -6.548  1.00  0.00    -0.285 OA
ATOM     27  C   UNL     1       6.367  -6.113  -7.718  1.00  0.00     0.037 A 
ATOM     28  C   UNL     1       4.856  -4.552  -8.772  1.00  0.00     0.013 A 
ATOM     29  C   UNL     1       6.822  -6.521  -8.978  1.00  0.00     0.013 A 
ATOM     30  C   UNL     1       5.308  -4.959 -10.028  1.00  0.00     0.001 A 
ATOM     31  C   UNL     1       6.292  -5.941 -10.132  1.00  0.00     0.001 A 
BRANCH  21  32
ATOM     32  O   UNL     1       7.012  -6.847  -4.078  1.00  0.00    -0.504 OA
ATOM     33  H   UNL     1       6.545  -6.459  -3.305  1.00  0.00     0.293 HD
ENDBRANCH  21  32
ENDBRANCH  19  20
ENDBRANCH  16  19
ENDBRANCH  15  16
ENDBRANCH  14  15
ENDBRANCH   1  14
TORSDOF 12
ENDMDL
MODEL 8
REMARK VINA RESULT:    -9.378      1.572      2.785
REMARK INTER + INTRA:         -16.256
REMARK INTER:                 -14.991
REMARK INTRA:                  -1.265
REMARK UNBOUND:                -0.848
REMARK SMILES C=C[C@@](C)(O)CC/C=C(\C)C(=O)OCC(C)(C)CC1=C(O)C(=O)c2ccccc2C1=O
REMARK SMILES IDX 11 1 12 2 9 3 8 4 10 5 7 6 6 7 3 8 4 9 2 10 1 11 5 12 13 14
REMARK SMILES IDX 14 15 15 16 16 17 17 18 18 19 19 20 20 21 30 22 22 23 29 24
REMARK SMILES IDX 31 25 23 26 24 27 28 28 25 29 27 30 26 31 21 32
REMARK H PARENT 5 13 21 33
ROOT
ATOM      1  C   UNL     1       6.824  -6.143  -2.731  1.00  0.00     0.333 C 
ATOM      2  O   UNL     1       7.658  -6.213  -1.838  1.00  0.00    -0.247 OA
ENDROOT
BRANCH   1   3
ATOM      3  C   UNL     1       6.999  -6.796  -4.066  1.00  0.00     0.030 C 
ATOM      4  C   UNL     1       6.592  -6.184  -5.198  1.00  0.00    -0.016 C 
ATOM      5  C   UNL     1       7.641  -8.151  -3.997  1.00  0.00     0.052 C 
BRANCH   4   6
ATOM      6  C   UNL     1       6.718  -6.704  -6.600  1.00  0.00     0.031 C 
BRANCH   6   7
ATOM      7  C   UNL     1       6.100  -5.817  -7.688  1.00  0.00     0.043 C 
BRANCH   7   8
ATOM      8  C   UNL     1       6.202  -6.287  -9.158  1.00  0.00     0.080 C 
ATOM      9  C   UNL     1       5.646  -7.704  -9.356  1.00  0.00     0.047 C 
BRANCH   8  10
ATOM     10  C   UNL     1       5.673  -5.247 -10.117  1.00  0.00    -0.001 C 
ATOM     11  C   UNL     1       4.537  -4.540 -10.020  1.00  0.00     0.007 C 
ENDBRANCH   8  10
BRANCH   8  12
ATOM     12  O   UNL     1       7.610  -6.381  -9.438  1.00  0.00    -0.386 OA
ATOM     13  H   UNL     1       7.708  -6.983 -10.197  1.00  0.00     0.211 HD
ENDBRANCH   8  12
ENDBRANCH   7   8
ENDBRANCH   6   7
ENDBRANCH   4   6
ENDBRANCH   1   3
BRANCH   1  14
ATOM     14  O   UNL     1       5.626  -5.511  -2.642  1.00  0.00    -0.462 OA
BRANCH  14  15
ATOM     15  C   UNL     1       5.709  -4.100  -2.378  1.00  0.00     0.240 C 
BRANCH  15  16
ATOM     16  C   UNL     1       4.976  -3.307  -3.488  1.00  0.00     0.003 C 
ATOM     17  C   UNL     1       5.994  -2.829  -4.539  1.00  0.00     0.015 C 
ATOM     18  C   UNL     1       4.317  -2.053  -2.870  1.00  0.00     0.015 C 
BRANCH  16  19
ATOM     19  C   UNL     1       3.850  -4.169  -4.135  1.00  0.00     0.053 C 
BRANCH  19  20
ATOM     20  C   UNL     1       2.662  -3.431  -4.717  1.00  0.00     0.047 C 
ATOM     21  C   UNL     1       2.585  -3.069  -6.007  1.00  0.00     0.171 C 
ATOM     22  C   UNL     1       1.502  -3.184  -3.813  1.00  0.00     0.193 C 
ATOM     23  C   UNL     1       1.405  -2.368  -6.573  1.00  0.00     0.228 C 
ATOM     24  C   UNL     1       0.333  -2.454  -4.344  1.00  0.00     0.034 A 
ATOM     25  O   UNL     1       1.502  -3.575  -2.652  1.00  0.00    -0.289 OA
ATOM     26  O   UNL     1       1.402  -2.070  -7.764  1.00  0.00    -0.285 OA
ATOM     27  C   UNL     1       0.287  -2.057  -5.676  1.00  0.00     0.037 A 
ATOM     28  C   UNL     1      -0.745  -2.162  -3.496  1.00  0.00     0.013 A 
ATOM     29  C   UNL     1      -0.827  -1.365  -6.168  1.00  0.00     0.013 A 
ATOM     30  C   UNL     1      -1.856  -1.473  -3.986  1.00  0.00     0.001 A 
ATOM     31  C   UNL     1      -1.897  -1.073  -5.321  1.00  0.00     0.001 A 
BRANCH  21  32
ATOM     32  O   UNL     1       3.624  -3.320  -6.889  1.00  0.00    -0.504 OA
ATOM     33  H   UNL     1       3.711  -2.502  -7.427  1.00  0.00     0.293 HD
ENDBRANCH  21  32
ENDBRANCH  19  20
ENDBRANCH  16  19
ENDBRANCH  15  16
ENDBRANCH  14  15
ENDBRANCH   1  14
TORSDOF 12
ENDMDL
MODEL 9
REMARK VINA RESULT:    -9.357      0.760      2.094
REMARK INTER + INTRA:         -16.222
REMARK INTER:                 -16.146
REMARK INTRA:                  -0.076
REMARK UNBOUND:                -0.848
REMARK SMILES C=C[C@@](C)(O)CC/C=C(\C)C(=O)OCC(C)(C)CC1=C(O)C(=O)c2ccccc2C1=O
REMARK SMILES IDX 11 1 12 2 9 3 8 4 10 5 7 6 6 7 3 8 4 9 2 10 1 11 5 12 13 14
REMARK SMILES IDX 14 15 15 16 16 17 17 18 18 19 19 20 20 21 30 22 22 23 29 24
REMARK SMILES IDX 31 25 23 26 24 27 28 28 25 29 27 30 26 31 21 32
REMARK H PARENT 5 13 21 33
ROOT
ATOM      1  C   UNL     1       6.136  -6.265  -5.034  1.00  0.00     0.333 C 
ATOM      2  O   UNL     1       6.221  -6.991  -4.053  1.00  0.00    -0.247 OA
ENDROOT
BRANCH   1   3
ATOM      3  C   UNL     1       6.704  -6.626  -6.371  1.00  0.00     0.030 C 
ATOM      4  C   UNL     1       6.203  -6.095  -7.505  1.00  0.00    -0.016 C 
ATOM      5  C   UNL     1       7.837  -7.609  -6.302  1.00  0.00     0.052 C 
BRANCH   4   6
ATOM      6  C   UNL     1       6.679  -6.346  -8.906  1.00  0.00     0.031 C 
BRANCH   6   7
ATOM      7  C   UNL     1       5.584  -6.359  -9.980  1.00  0.00     0.043 C 
BRANCH   7   8
ATOM      8  C   UNL     1       4.785  -5.057 -10.223  1.00  0.00     0.080 C 
ATOM      9  C   UNL     1       3.467  -5.313 -10.967  1.00  0.00     0.047 C 
BRANCH   8  10
ATOM     10  C   UNL     1       4.665  -4.230  -8.964  1.00  0.00    -0.001 C 
ATOM     11  C   UNL     1       3.551  -3.934  -8.278  1.00  0.00     0.007 C 
ENDBRANCH   8  10
BRANCH   8  12
ATOM     12  O   UNL     1       5.589  -4.270 -11.119  1.00  0.00    -0.386 OA
ATOM     13  H   UNL     1       5.394  -4.580 -12.021  1.00  0.00     0.211 HD
ENDBRANCH   8  12
ENDBRANCH   7   8
ENDBRANCH   6   7
ENDBRANCH   4   6
ENDBRANCH   1   3
BRANCH   1  14
ATOM     14  O   UNL     1       5.498  -5.067  -5.074  1.00  0.00    -0.462 OA
BRANCH  14  15
ATOM     15  C   UNL     1       4.664  -4.792  -3.936  1.00  0.00     0.240 C 
BRANCH  15  16
ATOM     16  C   UNL     1       5.356  -3.766  -3.005  1.00  0.00     0.003 C 
ATOM     17  C   UNL     1       6.595  -3.183  -3.709  1.00  0.00     0.015 C 
ATOM     18  C   UNL     1       5.838  -4.482  -1.723  1.00  0.00     0.015 C 
BRANCH  16  19
ATOM     19  C   UNL     1       4.361  -2.644  -2.579  1.00  0.00     0.053 C 
BRANCH  19  20
ATOM     20  C   UNL     1       3.279  -2.266  -3.570  1.00  0.00     0.047 C 
ATOM     21  C   UNL     1       3.542  -1.732  -4.773  1.00  0.00     0.171 C 
ATOM     22  C   UNL     1       1.872  -2.593  -3.201  1.00  0.00     0.193 C 
ATOM     23  C   UNL     1       2.475  -1.389  -5.747  1.00  0.00     0.228 C 
ATOM     24  C   UNL     1       0.790  -2.224  -4.136  1.00  0.00     0.034 A 
ATOM     25  O   UNL     1       1.602  -3.156  -2.147  1.00  0.00    -0.289 OA
ATOM     26  O   UNL     1       2.788  -0.907  -6.831  1.00  0.00    -0.285 OA
ATOM     27  C   UNL     1       1.081  -1.640  -5.365  1.00  0.00     0.037 A 
ATOM     28  C   UNL     1      -0.544  -2.472  -3.785  1.00  0.00     0.013 A 
ATOM     29  C   UNL     1       0.047  -1.296  -6.245  1.00  0.00     0.013 A 
ATOM     30  C   UNL     1      -1.575  -2.130  -4.662  1.00  0.00     0.001 A 
ATOM     31  C   UNL     1      -1.281  -1.541  -5.890  1.00  0.00     0.001 A 
BRANCH  21  32
ATOM     32  O   UNL     1       4.840  -1.455  -5.171  1.00  0.00    -0.504 OA
ATOM     33  H   UNL     1       4.937  -1.879  -6.053  1.00  0.00     0.293 HD
ENDBRANCH  21  32
ENDBRANCH  19  20
ENDBRANCH  16  19
ENDBRANCH  15  16
ENDBRANCH  14  15
ENDBRANCH   1  14
TORSDOF 12
ENDMDL
MODEL 10
REMARK VINA RESULT:    -9.105      2.025      7.135
REMARK INTER + INTRA:         -15.808
REMARK INTER:                 -14.034
REMARK INTRA:                  -1.774
REMARK UNBOUND:                -0.848
REMARK SMILES C=C[C@@](C)(O)CC/C=C(\C)C(=O)OCC(C)(C)CC1=C(O)C(=O)c2ccccc2C1=O
REMARK SMILES IDX 11 1 12 2 9 3 8 4 10 5 7 6 6 7 3 8 4 9 2 10 1 11 5 12 13 14
REMARK SMILES IDX 14 15 15 16 16 17 17 18 18 19 19 20 20 21 30 22 22 23 29 24
REMARK SMILES IDX 31 25 23 26 24 27 28 28 25 29 27 30 26 31 21 32
REMARK H PARENT 5 13 21 33
ROOT
ATOM      1  C   UNL     1       1.550  -3.066  -1.846  1.00  0.00     0.333 C 
ATOM      2  O   UNL     1       1.335  -3.053  -0.642  1.00  0.00    -0.247 OA
ENDROOT
BRANCH   1   3
ATOM      3  C   UNL     1       0.489  -2.808  -2.870  1.00  0.00     0.030 C 
ATOM      4  C   UNL     1      -0.169  -1.630  -2.907  1.00  0.00    -0.016 C 
ATOM      5  C   UNL     1       0.251  -3.963  -3.798  1.00  0.00     0.052 C 
BRANCH   4   6
ATOM      6  C   UNL     1      -1.235  -1.223  -3.881  1.00  0.00     0.031 C 
BRANCH   6   7
ATOM      7  C   UNL     1      -0.736  -0.843  -5.281  1.00  0.00     0.043 C 
BRANCH   7   8
ATOM      8  C   UNL     1      -1.244  -1.669  -6.486  1.00  0.00     0.080 C 
ATOM      9  C   UNL     1      -1.667  -0.780  -7.664  1.00  0.00     0.047 C 
BRANCH   8  10
ATOM     10  C   UNL     1      -0.297  -2.793  -6.834  1.00  0.00    -0.001 C 
ATOM     11  C   UNL     1       0.907  -2.703  -7.417  1.00  0.00     0.007 C 
ENDBRANCH   8  10
BRANCH   8  12
ATOM     12  O   UNL     1      -2.449  -2.313  -6.035  1.00  0.00    -0.386 OA
ATOM     13  H   UNL     1      -2.435  -2.288  -5.062  1.00  0.00     0.211 HD
ENDBRANCH   8  12
ENDBRANCH   7   8
ENDBRANCH   6   7
ENDBRANCH   4   6
ENDBRANCH   1   3
BRANCH   1  14
ATOM     14  O   UNL     1       2.760  -3.272  -2.427  1.00  0.00    -0.462 OA
BRANCH  14  15
ATOM     15  C   UNL     1       3.463  -2.073  -2.794  1.00  0.00     0.240 C 
BRANCH  15  16
ATOM     16  C   UNL     1       3.892  -2.141  -4.280  1.00  0.00     0.003 C 
ATOM     17  C   UNL     1       5.418  -1.970  -4.386  1.00  0.00     0.015 C 
ATOM     18  C   UNL     1       3.234  -0.977  -5.056  1.00  0.00     0.015 C 
BRANCH  16  19
ATOM     19  C   UNL     1       3.421  -3.477  -4.934  1.00  0.00     0.053 C 
BRANCH  19  20
ATOM     20  C   UNL     1       4.498  -4.442  -5.385  1.00  0.00     0.047 C 
ATOM     21  C   UNL     1       4.921  -4.525  -6.656  1.00  0.00     0.171 C 
ATOM     22  C   UNL     1       5.160  -5.266  -4.334  1.00  0.00     0.193 C 
ATOM     23  C   UNL     1       5.994  -5.458  -7.084  1.00  0.00     0.228 C 
ATOM     24  C   UNL     1       6.203  -6.230  -4.740  1.00  0.00     0.034 A 
ATOM     25  O   UNL     1       4.858  -5.157  -3.151  1.00  0.00    -0.289 OA
ATOM     26  O   UNL     1       6.334  -5.477  -8.263  1.00  0.00    -0.285 OA
ATOM     27  C   UNL     1       6.604  -6.324  -6.069  1.00  0.00     0.037 A 
ATOM     28  C   UNL     1       6.800  -7.054  -3.776  1.00  0.00     0.013 A 
ATOM     29  C   UNL     1       7.595  -7.241  -6.444  1.00  0.00     0.013 A 
ATOM     30  C   UNL     1       7.788  -7.967  -4.148  1.00  0.00     0.001 A 
ATOM     31  C   UNL     1       8.184  -8.062  -5.481  1.00  0.00     0.001 A 
BRANCH  21  32
ATOM     32  O   UNL     1       4.361  -3.744  -7.654  1.00  0.00    -0.504 OA
ATOM     33  H   UNL     1       4.230  -4.351  -8.416  1.00  0.00     0.293 HD
ENDBRANCH  21  32
ENDBRANCH  19  20
ENDBRANCH  16  19
ENDBRANCH  15  16
ENDBRANCH  14  15
ENDBRANCH   1  14
TORSDOF 12
ENDMDL
MODEL 11
REMARK VINA RESULT:    -9.058      1.380      3.580
REMARK INTER + INTRA:         -15.730
REMARK INTER:                 -15.555
REMARK INTRA:                  -0.176
REMARK UNBOUND:                -0.848
REMARK SMILES C=C[C@@](C)(O)CC/C=C(\C)C(=O)OCC(C)(C)CC1=C(O)C(=O)c2ccccc2C1=O
REMARK SMILES IDX 11 1 12 2 9 3 8 4 10 5 7 6 6 7 3 8 4 9 2 10 1 11 5 12 13 14
REMARK SMILES IDX 14 15 15 16 16 17 17 18 18 19 19 20 20 21 30 22 22 23 29 24
REMARK SMILES IDX 31 25 23 26 24 27 28 28 25 29 27 30 26 31 21 32
REMARK H PARENT 5 13 21 33
ROOT
ATOM      1  C   UNL     1       4.959  -4.286  -7.388  1.00  0.00     0.333 C 
ATOM      2  O   UNL     1       4.069  -3.939  -8.151  1.00  0.00    -0.247 OA
ENDROOT
BRANCH   1   3
ATOM      3  C   UNL     1       5.839  -5.471  -7.640  1.00  0.00     0.030 C 
ATOM      4  C   UNL     1       6.565  -6.022  -6.645  1.00  0.00    -0.016 C 
ATOM      5  C   UNL     1       5.822  -5.944  -9.065  1.00  0.00     0.052 C 
BRANCH   4   6
ATOM      6  C   UNL     1       7.469  -7.215  -6.743  1.00  0.00     0.031 C 
BRANCH   6   7
ATOM      7  C   UNL     1       8.065  -7.699  -5.414  1.00  0.00     0.043 C 
BRANCH   7   8
ATOM      8  C   UNL     1       7.181  -7.621  -4.147  1.00  0.00     0.080 C 
ATOM      9  C   UNL     1       6.944  -9.000  -3.517  1.00  0.00     0.047 C 
BRANCH   8  10
ATOM     10  C   UNL     1       7.660  -6.550  -3.195  1.00  0.00    -0.001 C 
ATOM     11  C   UNL     1       7.577  -6.543  -1.857  1.00  0.00     0.007 C 
ENDBRANCH   8  10
BRANCH   8  12
ATOM     12  O   UNL     1       5.890  -7.176  -4.601  1.00  0.00    -0.386 OA
ATOM     13  H   UNL     1       5.952  -6.213  -4.728  1.00  0.00     0.211 HD
ENDBRANCH   8  12
ENDBRANCH   7   8
ENDBRANCH   6   7
ENDBRANCH   4   6
ENDBRANCH   1   3
BRANCH   1  14
ATOM     14  O   UNL     1       5.307  -3.647  -6.241  1.00  0.00    -0.462 OA
BRANCH  14  15
ATOM     15  C   UNL     1       4.515  -3.999  -5.094  1.00  0.00     0.240 C 
BRANCH  15  16
ATOM     16  C   UNL     1       5.074  -3.303  -3.828  1.00  0.00     0.003 C 
ATOM     17  C   UNL     1       6.529  -2.866  -4.078  1.00  0.00     0.015 C 
ATOM     18  C   UNL     1       5.081  -4.308  -2.654  1.00  0.00     0.015 C 
BRANCH  16  19
ATOM     19  C   UNL     1       4.178  -2.094  -3.417  1.00  0.00     0.053 C 
BRANCH  19  20
ATOM     20  C   UNL     1       2.719  -2.146  -3.821  1.00  0.00     0.047 C 
ATOM     21  C   UNL     1       1.757  -2.641  -3.028  1.00  0.00     0.171 C 
ATOM     22  C   UNL     1       2.352  -1.533  -5.130  1.00  0.00     0.193 C 
ATOM     23  C   UNL     1       0.326  -2.664  -3.424  1.00  0.00     0.228 C 
ATOM     24  C   UNL     1       0.940  -1.579  -5.563  1.00  0.00     0.034 A 
ATOM     25  O   UNL     1       3.192  -0.997  -5.843  1.00  0.00    -0.289 OA
ATOM     26  O   UNL     1      -0.502  -3.129  -2.646  1.00  0.00    -0.285 OA
ATOM     27  C   UNL     1      -0.038  -2.128  -4.741  1.00  0.00     0.037 A 
ATOM     28  C   UNL     1       0.582  -1.059  -6.815  1.00  0.00     0.013 A 
ATOM     29  C   UNL     1      -1.373  -2.166  -5.161  1.00  0.00     0.013 A 
ATOM     30  C   UNL     1      -0.749  -1.096  -7.234  1.00  0.00     0.001 A 
ATOM     31  C   UNL     1      -1.726  -1.650  -6.409  1.00  0.00     0.001 A 
BRANCH  21  32
ATOM     32  O   UNL     1       2.052  -3.179  -1.786  1.00  0.00    -0.504 OA
ATOM     33  H   UNL     1       2.753  -3.848  -1.952  1.00  0.00     0.293 HD
ENDBRANCH  21  32
ENDBRANCH  19  20
ENDBRANCH  16  19
ENDBRANCH  15  16
ENDBRANCH  14  15
ENDBRANCH   1  14
TORSDOF 12
ENDMDL
MODEL 12
REMARK VINA RESULT:    -8.959      2.251      7.047
REMARK INTER + INTRA:         -15.569
REMARK INTER:                 -14.402
REMARK INTRA:                  -1.167
REMARK UNBOUND:                -0.848
REMARK SMILES C=C[C@@](C)(O)CC/C=C(\C)C(=O)OCC(C)(C)CC1=C(O)C(=O)c2ccccc2C1=O
REMARK SMILES IDX 11 1 12 2 9 3 8 4 10 5 7 6 6 7 3 8 4 9 2 10 1 11 5 12 13 14
REMARK SMILES IDX 14 15 15 16 16 17 17 18 18 19 19 20 20 21 30 22 22 23 29 24
REMARK SMILES IDX 31 25 23 26 24 27 28 28 25 29 27 30 26 31 21 32
REMARK H PARENT 5 13 21 33
ROOT
ATOM      1  C   UNL     1       1.483  -2.839  -2.178  1.00  0.00     0.333 C 
ATOM      2  O   UNL     1       1.787  -3.307  -1.089  1.00  0.00    -0.247 OA
ENDROOT
BRANCH   1   3
ATOM      3  C   UNL     1       0.067  -2.708  -2.646  1.00  0.00     0.030 C 
ATOM      4  C   UNL     1      -0.311  -1.682  -3.437  1.00  0.00    -0.016 C 
ATOM      5  C   UNL     1      -0.839  -3.796  -2.146  1.00  0.00     0.052 C 
BRANCH   4   6
ATOM      6  C   UNL     1      -1.681  -1.432  -3.997  1.00  0.00     0.031 C 
BRANCH   6   7
ATOM      7  C   UNL     1      -1.726  -0.572  -5.266  1.00  0.00     0.043 C 
BRANCH   7   8
ATOM      8  C   UNL     1      -1.263  -1.211  -6.597  1.00  0.00     0.080 C 
ATOM      9  C   UNL     1       0.088  -0.657  -7.069  1.00  0.00     0.047 C 
BRANCH   8  10
ATOM     10  C   UNL     1      -1.364  -2.718  -6.559  1.00  0.00    -0.001 C 
ATOM     11  C   UNL     1      -0.370  -3.612  -6.659  1.00  0.00     0.007 C 
ENDBRANCH   8  10
BRANCH   8  12
ATOM     12  O   UNL     1      -2.221  -0.790  -7.583  1.00  0.00    -0.386 OA
ATOM     13  H   UNL     1      -2.824  -1.539  -7.730  1.00  0.00     0.211 HD
ENDBRANCH   8  12
ENDBRANCH   7   8
ENDBRANCH   6   7
ENDBRANCH   4   6
ENDBRANCH   1   3
BRANCH   1  14
ATOM     14  O   UNL     1       2.355  -2.344  -3.094  1.00  0.00    -0.462 OA
BRANCH  14  15
ATOM     15  C   UNL     1       2.505  -3.147  -4.276  1.00  0.00     0.240 C 
BRANCH  15  16
ATOM     16  C   UNL     1       3.317  -2.374  -5.345  1.00  0.00     0.003 C 
ATOM     17  C   UNL     1       2.785  -0.934  -5.457  1.00  0.00     0.015 C 
ATOM     18  C   UNL     1       3.128  -3.053  -6.720  1.00  0.00     0.015 C 
BRANCH  16  19
ATOM     19  C   UNL     1       4.839  -2.395  -5.008  1.00  0.00     0.053 C 
BRANCH  19  20
ATOM     20  C   UNL     1       5.408  -3.688  -4.460  1.00  0.00     0.047 C 
ATOM     21  C   UNL     1       5.380  -4.006  -3.156  1.00  0.00     0.171 C 
ATOM     22  C   UNL     1       5.941  -4.671  -5.446  1.00  0.00     0.193 C 
ATOM     23  C   UNL     1       5.919  -5.287  -2.633  1.00  0.00     0.228 C 
ATOM     24  C   UNL     1       6.518  -5.935  -4.946  1.00  0.00     0.034 A 
ATOM     25  O   UNL     1       5.906  -4.450  -6.651  1.00  0.00    -0.289 OA
ATOM     26  O   UNL     1       5.857  -5.514  -1.428  1.00  0.00    -0.285 OA
ATOM     27  C   UNL     1       6.510  -6.232  -3.587  1.00  0.00     0.037 A 
ATOM     28  C   UNL     1       7.074  -6.849  -5.852  1.00  0.00     0.013 A 
ATOM     29  C   UNL     1       7.059  -7.434  -3.124  1.00  0.00     0.013 A 
ATOM     30  C   UNL     1       7.621  -8.048  -5.391  1.00  0.00     0.001 A 
ATOM     31  C   UNL     1       7.616  -8.340  -4.028  1.00  0.00     0.001 A 
BRANCH  21  32
ATOM     32  O   UNL     1       4.854  -3.138  -2.214  1.00  0.00    -0.504 OA
ATOM     33  H   UNL     1       4.508  -3.713  -1.495  1.00  0.00     0.293 HD
ENDBRANCH  21  32
ENDBRANCH  19  20
ENDBRANCH  16  19
ENDBRANCH  15  16
ENDBRANCH  14  15
ENDBRANCH   1  14
TORSDOF 12
ENDMDL
MODEL 13
REMARK VINA RESULT:    -8.851      1.517      6.517
REMARK INTER + INTRA:         -15.390
REMARK INTER:                 -14.091
REMARK INTRA:                  -1.299
REMARK UNBOUND:                -0.848
REMARK SMILES C=C[C@@](C)(O)CC/C=C(\C)C(=O)OCC(C)(C)CC1=C(O)C(=O)c2ccccc2C1=O
REMARK SMILES IDX 11 1 12 2 9 3 8 4 10 5 7 6 6 7 3 8 4 9 2 10 1 11 5 12 13 14
REMARK SMILES IDX 14 15 15 16 16 17 17 18 18 19 19 20 20 21 30 22 22 23 29 24
REMARK SMILES IDX 31 25 23 26 24 27 28 28 25 29 27 30 26 31 21 32
REMARK H PARENT 5 13 21 33
ROOT
ATOM      1  C   UNL     1       1.969  -3.019  -1.869  1.00  0.00     0.333 C 
ATOM      2  O   UNL     1       2.242  -3.419  -0.746  1.00  0.00    -0.247 OA
ENDROOT
BRANCH   1   3
ATOM      3  C   UNL     1       0.584  -2.628  -2.285  1.00  0.00     0.030 C 
ATOM      4  C   UNL     1       0.363  -1.499  -2.990  1.00  0.00    -0.016 C 
ATOM      5  C   UNL     1      -0.476  -3.591  -1.836  1.00  0.00     0.052 C 
BRANCH   4   6
ATOM      6  C   UNL     1      -0.958  -0.992  -3.490  1.00  0.00     0.031 C 
BRANCH   6   7
ATOM      7  C   UNL     1      -1.571  -1.788  -4.649  1.00  0.00     0.043 C 
BRANCH   7   8
ATOM      8  C   UNL     1      -0.742  -1.944  -5.945  1.00  0.00     0.080 C 
ATOM      9  C   UNL     1      -1.629  -2.089  -7.189  1.00  0.00     0.047 C 
BRANCH   8  10
ATOM     10  C   UNL     1       0.343  -0.898  -6.046  1.00  0.00    -0.001 C 
ATOM     11  C   UNL     1       1.171  -0.668  -7.075  1.00  0.00     0.007 C 
ENDBRANCH   8  10
BRANCH   8  12
ATOM     12  O   UNL     1      -0.050  -3.198  -5.814  1.00  0.00    -0.386 OA
ATOM     13  H   UNL     1      -0.727  -3.879  -5.655  1.00  0.00     0.211 HD
ENDBRANCH   8  12
ENDBRANCH   7   8
ENDBRANCH   6   7
ENDBRANCH   4   6
ENDBRANCH   1   3
BRANCH   1  14
ATOM     14  O   UNL     1       2.859  -2.835  -2.878  1.00  0.00    -0.462 OA
BRANCH  14  15
ATOM     15  C   UNL     1       4.157  -2.382  -2.459  1.00  0.00     0.240 C 
BRANCH  15  16
ATOM     16  C   UNL     1       5.254  -3.322  -3.017  1.00  0.00     0.003 C 
ATOM     17  C   UNL     1       6.202  -3.743  -1.879  1.00  0.00     0.015 C 
ATOM     18  C   UNL     1       6.093  -2.561  -4.069  1.00  0.00     0.015 C 
BRANCH  16  19
ATOM     19  C   UNL     1       4.619  -4.561  -3.719  1.00  0.00     0.053 C 
BRANCH  19  20
ATOM     20  C   UNL     1       4.727  -4.632  -5.228  1.00  0.00     0.047 C 
ATOM     21  C   UNL     1       3.963  -3.900  -6.052  1.00  0.00     0.171 C 
ATOM     22  C   UNL     1       5.799  -5.500  -5.795  1.00  0.00     0.193 C 
ATOM     23  C   UNL     1       4.094  -3.959  -7.530  1.00  0.00     0.228 C 
ATOM     24  C   UNL     1       5.924  -5.605  -7.263  1.00  0.00     0.034 A 
ATOM     25  O   UNL     1       6.571  -6.119  -5.072  1.00  0.00    -0.289 OA
ATOM     26  O   UNL     1       3.364  -3.257  -8.224  1.00  0.00    -0.285 OA
ATOM     27  C   UNL     1       5.098  -4.863  -8.102  1.00  0.00     0.037 A 
ATOM     28  C   UNL     1       6.888  -6.458  -7.818  1.00  0.00     0.013 A 
ATOM     29  C   UNL     1       5.225  -4.970  -9.492  1.00  0.00     0.013 A 
ATOM     30  C   UNL     1       7.016  -6.565  -9.204  1.00  0.00     0.001 A 
ATOM     31  C   UNL     1       6.185  -5.823 -10.041  1.00  0.00     0.001 A 
BRANCH  21  32
ATOM     32  O   UNL     1       2.986  -3.048  -5.563  1.00  0.00    -0.504 OA
ATOM     33  H   UNL     1       2.159  -3.580  -5.553  1.00  0.00     0.293 HD
ENDBRANCH  21  32
ENDBRANCH  19  20
ENDBRANCH  16  19
ENDBRANCH  15  16
ENDBRANCH  14  15
ENDBRANCH   1  14
TORSDOF 12
ENDMDL
MODEL 14
REMARK VINA RESULT:    -8.761      2.192      7.091
REMARK INTER + INTRA:         -15.243
REMARK INTER:                 -15.034
REMARK INTRA:                  -0.208
REMARK UNBOUND:                -0.848
REMARK SMILES C=C[C@@](C)(O)CC/C=C(\C)C(=O)OCC(C)(C)CC1=C(O)C(=O)c2ccccc2C1=O
REMARK SMILES IDX 11 1 12 2 9 3 8 4 10 5 7 6 6 7 3 8 4 9 2 10 1 11 5 12 13 14
REMARK SMILES IDX 14 15 15 16 16 17 17 18 18 19 19 20 20 21 30 22 22 23 29 24
REMARK SMILES IDX 31 25 23 26 24 27 28 28 25 29 27 30 26 31 21 32
REMARK H PARENT 5 13 21 33
ROOT
ATOM      1  C   UNL     1       2.609  -2.578  -7.060  1.00  0.00     0.333 C 
ATOM      2  O   UNL     1       2.940  -3.551  -7.724  1.00  0.00    -0.247 OA
ENDROOT
BRANCH   1   3
ATOM      3  C   UNL     1       1.197  -2.087  -6.976  1.00  0.00     0.030 C 
ATOM      4  C   UNL     1       0.207  -2.891  -6.537  1.00  0.00    -0.016 C 
ATOM      5  C   UNL     1       1.024  -0.665  -7.424  1.00  0.00     0.052 C 
BRANCH   4   6
ATOM      6  C   UNL     1      -1.242  -2.534  -6.381  1.00  0.00     0.031 C 
BRANCH   6   7
ATOM      7  C   UNL     1      -1.535  -1.390  -5.402  1.00  0.00     0.043 C 
BRANCH   7   8
ATOM      8  C   UNL     1      -0.915  -1.464  -3.987  1.00  0.00     0.080 C 
ATOM      9  C   UNL     1      -1.757  -0.719  -2.942  1.00  0.00     0.047 C 
BRANCH   8  10
ATOM     10  C   UNL     1      -0.531  -2.877  -3.616  1.00  0.00    -0.001 C 
ATOM     11  C   UNL     1      -0.267  -3.365  -2.396  1.00  0.00     0.007 C 
ENDBRANCH   8  10
BRANCH   8  12
ATOM     12  O   UNL     1       0.327  -0.743  -4.070  1.00  0.00    -0.386 OA
ATOM     13  H   UNL     1       0.133   0.106  -4.505  1.00  0.00     0.211 HD
ENDBRANCH   8  12
ENDBRANCH   7   8
ENDBRANCH   6   7
ENDBRANCH   4   6
ENDBRANCH   1   3
BRANCH   1  14
ATOM     14  O   UNL     1       3.440  -1.834  -6.285  1.00  0.00    -0.462 OA
BRANCH  14  15
ATOM     15  C   UNL     1       2.923  -1.518  -4.982  1.00  0.00     0.240 C 
BRANCH  15  16
ATOM     16  C   UNL     1       3.509  -2.490  -3.927  1.00  0.00     0.003 C 
ATOM     17  C   UNL     1       2.907  -3.892  -4.125  1.00  0.00     0.015 C 
ATOM     18  C   UNL     1       3.118  -2.006  -2.513  1.00  0.00     0.015 C 
BRANCH  16  19
ATOM     19  C   UNL     1       5.066  -2.522  -4.007  1.00  0.00     0.053 C 
BRANCH  19  20
ATOM     20  C   UNL     1       5.730  -3.883  -4.023  1.00  0.00     0.047 C 
ATOM     21  C   UNL     1       5.962  -4.598  -2.911  1.00  0.00     0.171 C 
ATOM     22  C   UNL     1       6.052  -4.470  -5.355  1.00  0.00     0.193 C 
ATOM     23  C   UNL     1       6.591  -5.943  -2.940  1.00  0.00     0.228 C 
ATOM     24  C   UNL     1       6.714  -5.790  -5.408  1.00  0.00     0.034 A 
ATOM     25  O   UNL     1       5.779  -3.883  -6.395  1.00  0.00    -0.289 OA
ATOM     26  O   UNL     1       6.769  -6.542  -1.883  1.00  0.00    -0.285 OA
ATOM     27  C   UNL     1       6.977  -6.500  -4.241  1.00  0.00     0.037 A 
ATOM     28  C   UNL     1       7.076  -6.335  -6.647  1.00  0.00     0.013 A 
ATOM     29  C   UNL     1       7.604  -7.750  -4.302  1.00  0.00     0.013 A 
ATOM     30  C   UNL     1       7.701  -7.582  -6.709  1.00  0.00     0.001 A 
ATOM     31  C   UNL     1       7.967  -8.289  -5.538  1.00  0.00     0.001 A 
BRANCH  21  32
ATOM     32  O   UNL     1       5.636  -4.106  -1.657  1.00  0.00    -0.504 OA
ATOM     33  H   UNL     1       6.359  -3.481  -1.427  1.00  0.00     0.293 HD
ENDBRANCH  21  32
ENDBRANCH  19  20
ENDBRANCH  16  19
ENDBRANCH  15  16
ENDBRANCH  14  15
ENDBRANCH   1  14
TORSDOF 12
ENDMDL
MODEL 15
REMARK VINA RESULT:    -8.757      1.750      5.930
REMARK INTER + INTRA:         -15.236
REMARK INTER:                 -13.952
REMARK INTRA:                  -1.284
REMARK UNBOUND:                -0.848
REMARK SMILES C=C[C@@](C)(O)CC/C=C(\C)C(=O)OCC(C)(C)CC1=C(O)C(=O)c2ccccc2C1=O
REMARK SMILES IDX 11 1 12 2 9 3 8 4 10 5 7 6 6 7 3 8 4 9 2 10 1 11 5 12 13 14
REMARK SMILES IDX 14 15 15 16 16 17 17 18 18 19 19 20 20 21 30 22 22 23 29 24
REMARK SMILES IDX 31 25 23 26 24 27 28 28 25 29 27 30 26 31 21 32
REMARK H PARENT 5 13 21 33
ROOT
ATOM      1  C   UNL     1       1.609  -1.132  -6.429  1.00  0.00     0.333 C 
ATOM      2  O   UNL     1       0.935  -0.173  -6.779  1.00  0.00    -0.247 OA
ENDROOT
BRANCH   1   3
ATOM      3  C   UNL     1       1.672  -2.414  -7.199  1.00  0.00     0.030 C 
ATOM      4  C   UNL     1       2.816  -2.812  -7.794  1.00  0.00    -0.016 C 
ATOM      5  C   UNL     1       0.370  -3.161  -7.236  1.00  0.00     0.052 C 
BRANCH   4   6
ATOM      6  C   UNL     1       3.033  -4.073  -8.577  1.00  0.00     0.031 C 
BRANCH   6   7
ATOM      7  C   UNL     1       4.500  -4.437  -8.844  1.00  0.00     0.043 C 
BRANCH   7   8
ATOM      8  C   UNL     1       4.868  -5.010 -10.233  1.00  0.00     0.080 C 
ATOM      9  C   UNL     1       5.431  -3.938 -11.175  1.00  0.00     0.047 C 
BRANCH   8  10
ATOM     10  C   UNL     1       5.698  -6.267 -10.117  1.00  0.00    -0.001 C 
ATOM     11  C   UNL     1       6.564  -6.595  -9.147  1.00  0.00     0.007 C 
ENDBRANCH   8  10
BRANCH   8  12
ATOM     12  O   UNL     1       3.624  -5.430 -10.821  1.00  0.00    -0.386 OA
ATOM     13  H   UNL     1       3.837  -5.811 -11.690  1.00  0.00     0.211 HD
ENDBRANCH   8  12
ENDBRANCH   7   8
ENDBRANCH   6   7
ENDBRANCH   4   6
ENDBRANCH   1   3
BRANCH   1  14
ATOM     14  O   UNL     1       2.415  -1.170  -5.337  1.00  0.00    -0.462 OA
BRANCH  14  15
ATOM     15  C   UNL     1       1.725  -1.336  -4.087  1.00  0.00     0.240 C 
BRANCH  15  16
ATOM     16  C   UNL     1       2.347  -2.507  -3.286  1.00  0.00     0.003 C 
ATOM     17  C   UNL     1       1.990  -3.843  -3.964  1.00  0.00     0.015 C 
ATOM     18  C   UNL     1       1.747  -2.529  -1.862  1.00  0.00     0.015 C 
BRANCH  16  19
ATOM     19  C   UNL     1       3.890  -2.330  -3.152  1.00  0.00     0.053 C 
BRANCH  19  20
ATOM     20  C   UNL     1       4.763  -3.457  -3.665  1.00  0.00     0.047 C 
ATOM     21  C   UNL     1       5.188  -3.534  -4.935  1.00  0.00     0.171 C 
ATOM     22  C   UNL     1       5.226  -4.467  -2.671  1.00  0.00     0.193 C 
ATOM     23  C   UNL     1       6.064  -4.631  -5.421  1.00  0.00     0.228 C 
ATOM     24  C   UNL     1       6.066  -5.589  -3.138  1.00  0.00     0.034 A 
ATOM     25  O   UNL     1       4.926  -4.383  -1.486  1.00  0.00    -0.289 OA
ATOM     26  O   UNL     1       6.418  -4.636  -6.596  1.00  0.00    -0.285 OA
ATOM     27  C   UNL     1       6.468  -5.670  -4.468  1.00  0.00     0.037 A 
ATOM     28  C   UNL     1       6.466  -6.580  -2.232  1.00  0.00     0.013 A 
ATOM     29  C   UNL     1       7.265  -6.737  -4.900  1.00  0.00     0.013 A 
ATOM     30  C   UNL     1       7.261  -7.644  -2.662  1.00  0.00     0.001 A 
ATOM     31  C   UNL     1       7.659  -7.724  -3.995  1.00  0.00     0.001 A 
BRANCH  21  32
ATOM     32  O   UNL     1       4.816  -2.590  -5.878  1.00  0.00    -0.504 OA
ATOM     33  H   UNL     1       5.657  -2.182  -6.183  1.00  0.00     0.293 HD
ENDBRANCH  21  32
ENDBRANCH  19  20
ENDBRANCH  16  19
ENDBRANCH  15  16
ENDBRANCH  14  15
ENDBRANCH   1  14
TORSDOF 12
ENDMDL
MODEL 16
REMARK VINA RESULT:    -8.710      2.400      7.570
REMARK INTER + INTRA:         -15.159
REMARK INTER:                 -13.545
REMARK INTRA:                  -1.614
REMARK UNBOUND:                -0.848
REMARK SMILES C=C[C@@](C)(O)CC/C=C(\C)C(=O)OCC(C)(C)CC1=C(O)C(=O)c2ccccc2C1=O
REMARK SMILES IDX 11 1 12 2 9 3 8 4 10 5 7 6 6 7 3 8 4 9 2 10 1 11 5 12 13 14
REMARK SMILES IDX 14 15 15 16 16 17 17 18 18 19 19 20 20 21 30 22 22 23 29 24
REMARK SMILES IDX 31 25 23 26 24 27 28 28 25 29 27 30 26 31 21 32
REMARK H PARENT 5 13 21 33
ROOT
ATOM      1  C   UNL     1       1.213  -1.260  -7.025  1.00  0.00     0.333 C 
ATOM      2  O   UNL     1       1.319  -0.184  -7.597  1.00  0.00    -0.247 OA
ENDROOT
BRANCH   1   3
ATOM      3  C   UNL     1       0.022  -1.633  -6.199  1.00  0.00     0.030 C 
ATOM      4  C   UNL     1      -0.273  -0.966  -5.063  1.00  0.00    -0.016 C 
ATOM      5  C   UNL     1      -0.761  -2.788  -6.753  1.00  0.00     0.052 C 
BRANCH   4   6
ATOM      6  C   UNL     1      -1.436  -1.213  -4.148  1.00  0.00     0.031 C 
BRANCH   6   7
ATOM      7  C   UNL     1      -1.079  -1.403  -2.668  1.00  0.00     0.043 C 
BRANCH   7   8
ATOM      8  C   UNL     1      -0.322  -2.689  -2.260  1.00  0.00     0.080 C 
ATOM      9  C   UNL     1      -0.453  -3.800  -3.310  1.00  0.00     0.047 C 
BRANCH   8  10
ATOM     10  C   UNL     1       1.089  -2.389  -1.811  1.00  0.00    -0.001 C 
ATOM     11  C   UNL     1       1.920  -3.185  -1.123  1.00  0.00     0.007 C 
ENDBRANCH   8  10
BRANCH   8  12
ATOM     12  O   UNL     1      -0.997  -3.181  -1.088  1.00  0.00    -0.386 OA
ATOM     13  H   UNL     1      -1.399  -4.033  -1.331  1.00  0.00     0.211 HD
ENDBRANCH   8  12
ENDBRANCH   7   8
ENDBRANCH   6   7
ENDBRANCH   4   6
ENDBRANCH   1   3
BRANCH   1  14
ATOM     14  O   UNL     1       2.115  -2.273  -7.079  1.00  0.00    -0.462 OA
BRANCH  14  15
ATOM     15  C   UNL     1       3.452  -1.907  -6.696  1.00  0.00     0.240 C 
BRANCH  15  16
ATOM     16  C   UNL     1       3.666  -2.182  -5.187  1.00  0.00     0.003 C 
ATOM     17  C   UNL     1       2.883  -3.442  -4.774  1.00  0.00     0.015 C 
ATOM     18  C   UNL     1       3.111  -0.995  -4.367  1.00  0.00     0.015 C 
BRANCH  16  19
ATOM     19  C   UNL     1       5.184  -2.321  -4.858  1.00  0.00     0.053 C 
BRANCH  19  20
ATOM     20  C   UNL     1       5.666  -3.674  -4.376  1.00  0.00     0.047 C 
ATOM     21  C   UNL     1       5.597  -4.063  -3.094  1.00  0.00     0.171 C 
ATOM     22  C   UNL     1       6.156  -4.631  -5.410  1.00  0.00     0.193 C 
ATOM     23  C   UNL     1       6.050  -5.401  -2.637  1.00  0.00     0.228 C 
ATOM     24  C   UNL     1       6.648  -5.954  -4.975  1.00  0.00     0.034 A 
ATOM     25  O   UNL     1       6.155  -4.341  -6.601  1.00  0.00    -0.289 OA
ATOM     26  O   UNL     1       5.953  -5.691  -1.448  1.00  0.00    -0.285 OA
ATOM     27  C   UNL     1       6.600  -6.325  -3.635  1.00  0.00     0.037 A 
ATOM     28  C   UNL     1       7.165  -6.847  -5.923  1.00  0.00     0.013 A 
ATOM     29  C   UNL     1       7.069  -7.582  -3.234  1.00  0.00     0.013 A 
ATOM     30  C   UNL     1       7.632  -8.101  -5.524  1.00  0.00     0.001 A 
ATOM     31  C   UNL     1       7.586  -8.468  -4.181  1.00  0.00     0.001 A 
BRANCH  21  32
ATOM     32  O   UNL     1       5.106  -3.219  -2.110  1.00  0.00    -0.504 OA
ATOM     33  H   UNL     1       5.004  -2.343  -2.546  1.00  0.00     0.293 HD
ENDBRANCH  21  32
ENDBRANCH  19  20
ENDBRANCH  16  19
ENDBRANCH  15  16
ENDBRANCH  14  15
ENDBRANCH   1  14
TORSDOF 12
ENDMDL
MODEL 17
REMARK VINA RESULT:    -8.696      2.303      7.909
REMARK INTER + INTRA:         -15.135
REMARK INTER:                 -13.794
REMARK INTRA:                  -1.341
REMARK UNBOUND:                -0.848
REMARK SMILES C=C[C@@](C)(O)CC/C=C(\C)C(=O)OCC(C)(C)CC1=C(O)C(=O)c2ccccc2C1=O
REMARK SMILES IDX 11 1 12 2 9 3 8 4 10 5 7 6 6 7 3 8 4 9 2 10 1 11 5 12 13 14
REMARK SMILES IDX 14 15 15 16 16 17 17 18 18 19 19 20 20 21 30 22 22 23 29 24
REMARK SMILES IDX 31 25 23 26 24 27 28 28 25 29 27 30 26 31 21 32
REMARK H PARENT 5 13 21 33
ROOT
ATOM      1  C   UNL     1       0.880  -1.080  -7.178  1.00  0.00     0.333 C 
ATOM      2  O   UNL     1       1.095  -0.036  -7.779  1.00  0.00    -0.247 OA
ENDROOT
BRANCH   1   3
ATOM      3  C   UNL     1      -0.327  -1.294  -6.318  1.00  0.00     0.030 C 
ATOM      4  C   UNL     1      -0.326  -0.935  -5.018  1.00  0.00    -0.016 C 
ATOM      5  C   UNL     1      -1.478  -1.934  -7.040  1.00  0.00     0.052 C 
BRANCH   4   6
ATOM      6  C   UNL     1      -1.459  -1.070  -4.044  1.00  0.00     0.031 C 
BRANCH   6   7
ATOM      7  C   UNL     1      -1.049  -1.350  -2.592  1.00  0.00     0.043 C 
BRANCH   7   8
ATOM      8  C   UNL     1      -0.249  -2.640  -2.297  1.00  0.00     0.080 C 
ATOM      9  C   UNL     1      -0.254  -3.613  -3.483  1.00  0.00     0.047 C 
BRANCH   8  10
ATOM     10  C   UNL     1       1.113  -2.334  -1.719  1.00  0.00    -0.001 C 
ATOM     11  C   UNL     1       2.193  -3.128  -1.695  1.00  0.00     0.007 C 
ENDBRANCH   8  10
BRANCH   8  12
ATOM     12  O   UNL     1      -0.966  -3.309  -1.244  1.00  0.00    -0.386 OA
ATOM     13  H   UNL     1      -1.207  -4.189  -1.581  1.00  0.00     0.211 HD
ENDBRANCH   8  12
ENDBRANCH   7   8
ENDBRANCH   6   7
ENDBRANCH   4   6
ENDBRANCH   1   3
BRANCH   1  14
ATOM     14  O   UNL     1       1.659  -2.191  -7.224  1.00  0.00    -0.462 OA
BRANCH  14  15
ATOM     15  C   UNL     1       3.068  -1.942  -7.080  1.00  0.00     0.240 C 
BRANCH  15  16
ATOM     16  C   UNL     1       3.516  -2.248  -5.629  1.00  0.00     0.003 C 
ATOM     17  C   UNL     1       2.810  -3.520  -5.127  1.00  0.00     0.015 C 
ATOM     18  C   UNL     1       3.093  -1.082  -4.707  1.00  0.00     0.015 C 
BRANCH  16  19
ATOM     19  C   UNL     1       5.067  -2.385  -5.545  1.00  0.00     0.053 C 
BRANCH  19  20
ATOM     20  C   UNL     1       5.628  -3.777  -5.337  1.00  0.00     0.047 C 
ATOM     21  C   UNL     1       5.748  -4.673  -6.329  1.00  0.00     0.171 C 
ATOM     22  C   UNL     1       6.141  -4.110  -3.978  1.00  0.00     0.193 C 
ATOM     23  C   UNL     1       6.322  -6.027  -6.119  1.00  0.00     0.228 C 
ATOM     24  C   UNL     1       6.681  -5.463  -3.735  1.00  0.00     0.034 A 
ATOM     25  O   UNL     1       6.124  -3.288  -3.069  1.00  0.00    -0.289 OA
ATOM     26  O   UNL     1       6.406  -6.795  -7.073  1.00  0.00    -0.285 OA
ATOM     27  C   UNL     1       6.766  -6.390  -4.769  1.00  0.00     0.037 A 
ATOM     28  C   UNL     1       7.118  -5.816  -2.451  1.00  0.00     0.013 A 
ATOM     29  C   UNL     1       7.280  -7.671  -4.528  1.00  0.00     0.013 A 
ATOM     30  C   UNL     1       7.631  -7.091  -2.210  1.00  0.00     0.001 A 
ATOM     31  C   UNL     1       7.710  -8.019  -3.247  1.00  0.00     0.001 A 
BRANCH  21  32
ATOM     32  O   UNL     1       5.324  -4.386  -7.616  1.00  0.00    -0.504 OA
ATOM     33  H   UNL     1       6.015  -4.759  -8.207  1.00  0.00     0.293 HD
ENDBRANCH  21  32
ENDBRANCH  19  20
ENDBRANCH  16  19
ENDBRANCH  15  16
ENDBRANCH  14  15
ENDBRANCH   1  14
TORSDOF 12
ENDMDL
MODEL 18
REMARK VINA RESULT:    -8.185      1.736      4.299
REMARK INTER + INTRA:         -14.296
REMARK INTER:                 -13.962
REMARK INTRA:                  -0.334
REMARK UNBOUND:                -0.848
REMARK SMILES C=C[C@@](C)(O)CC/C=C(\C)C(=O)OCC(C)(C)CC1=C(O)C(=O)c2ccccc2C1=O
REMARK SMILES IDX 11 1 12 2 9 3 8 4 10 5 7 6 6 7 3 8 4 9 2 10 1 11 5 12 13 14
REMARK SMILES IDX 14 15 15 16 16 17 17 18 18 19 19 20 20 21 30 22 22 23 29 24
REMARK SMILES IDX 31 25 23 26 24 27 28 28 25 29 27 30 26 31 21 32
REMARK H PARENT 5 13 21 33
ROOT
ATOM      1  C   UNL     1       5.222  -4.699  -7.932  1.00  0.00     0.333 C 
ATOM      2  O   UNL     1       4.423  -4.487  -8.833  1.00  0.00    -0.247 OA
ENDROOT
BRANCH   1   3
ATOM      3  C   UNL     1       6.109  -5.904  -7.892  1.00  0.00     0.030 C 
ATOM      4  C   UNL     1       6.710  -6.287  -6.745  1.00  0.00    -0.016 C 
ATOM      5  C   UNL     1       6.250  -6.596  -9.216  1.00  0.00     0.052 C 
BRANCH   4   6
ATOM      6  C   UNL     1       7.604  -7.475  -6.549  1.00  0.00     0.031 C 
BRANCH   6   7
ATOM      7  C   UNL     1       8.235  -7.600  -5.156  1.00  0.00     0.043 C 
BRANCH   7   8
ATOM      8  C   UNL     1       7.292  -7.680  -3.932  1.00  0.00     0.080 C 
ATOM      9  C   UNL     1       6.868  -9.121  -3.619  1.00  0.00     0.047 C 
BRANCH   8  10
ATOM     10  C   UNL     1       7.830  -6.896  -2.758  1.00  0.00    -0.001 C 
ATOM     11  C   UNL     1       7.146  -6.121  -1.904  1.00  0.00     0.007 C 
ENDBRANCH   8  10
BRANCH   8  12
ATOM     12  O   UNL     1       6.088  -6.998  -4.325  1.00  0.00    -0.386 OA
ATOM     13  H   UNL     1       6.162  -6.084  -3.999  1.00  0.00     0.211 HD
ENDBRANCH   8  12
ENDBRANCH   7   8
ENDBRANCH   6   7
ENDBRANCH   4   6
ENDBRANCH   1   3
BRANCH   1  14
ATOM     14  O   UNL     1       5.452  -3.879  -6.875  1.00  0.00    -0.462 OA
BRANCH  14  15
ATOM     15  C   UNL     1       4.490  -3.985  -5.812  1.00  0.00     0.240 C 
BRANCH  15  16
ATOM     16  C   UNL     1       5.010  -3.255  -4.548  1.00  0.00     0.003 C 
ATOM     17  C   UNL     1       6.548  -3.198  -4.581  1.00  0.00     0.015 C 
ATOM     18  C   UNL     1       4.597  -4.053  -3.291  1.00  0.00     0.015 C 
BRANCH  16  19
ATOM     19  C   UNL     1       4.389  -1.830  -4.436  1.00  0.00     0.053 C 
BRANCH  19  20
ATOM     20  C   UNL     1       2.949  -1.666  -4.877  1.00  0.00     0.047 C 
ATOM     21  C   UNL     1       2.594  -1.447  -6.152  1.00  0.00     0.171 C 
ATOM     22  C   UNL     1       1.893  -1.846  -3.839  1.00  0.00     0.193 C 
ATOM     23  C   UNL     1       1.177  -1.313  -6.578  1.00  0.00     0.228 C 
ATOM     24  C   UNL     1       0.478  -1.678  -4.231  1.00  0.00     0.034 A 
ATOM     25  O   UNL     1       2.176  -2.129  -2.681  1.00  0.00    -0.289 OA
ATOM     26  O   UNL     1       0.926  -1.118  -7.763  1.00  0.00    -0.285 OA
ATOM     27  C   UNL     1       0.133  -1.418  -5.553  1.00  0.00     0.037 A 
ATOM     28  C   UNL     1      -0.527  -1.788  -3.261  1.00  0.00     0.013 A 
ATOM     29  C   UNL     1      -1.211  -1.261  -5.913  1.00  0.00     0.013 A 
ATOM     30  C   UNL     1      -1.868  -1.633  -3.619  1.00  0.00     0.001 A 
ATOM     31  C   UNL     1      -2.210  -1.368  -4.944  1.00  0.00     0.001 A 
BRANCH  21  32
ATOM     32  O   UNL     1       3.544  -1.319  -7.153  1.00  0.00    -0.504 OA
ATOM     33  H   UNL     1       3.292  -0.507  -7.647  1.00  0.00     0.293 HD
ENDBRANCH  21  32
ENDBRANCH  19  20
ENDBRANCH  16  19
ENDBRANCH  15  16
ENDBRANCH  14  15
ENDBRANCH   1  14
TORSDOF 12
ENDMDL
MODEL 19
REMARK VINA RESULT:    -7.995      1.484      5.290
REMARK INTER + INTRA:         -13.985
REMARK INTER:                 -13.048
REMARK INTRA:                  -0.937
REMARK UNBOUND:                -0.848
REMARK SMILES C=C[C@@](C)(O)CC/C=C(\C)C(=O)OCC(C)(C)CC1=C(O)C(=O)c2ccccc2C1=O
REMARK SMILES IDX 11 1 12 2 9 3 8 4 10 5 7 6 6 7 3 8 4 9 2 10 1 11 5 12 13 14
REMARK SMILES IDX 14 15 15 16 16 17 17 18 18 19 19 20 20 21 30 22 22 23 29 24
REMARK SMILES IDX 31 25 23 26 24 27 28 28 25 29 27 30 26 31 21 32
REMARK H PARENT 5 13 21 33
ROOT
ATOM      1  C   UNL     1       2.615  -3.868  -8.298  1.00  0.00     0.333 C 
ATOM      2  O   UNL     1       1.884  -4.219  -9.214  1.00  0.00    -0.247 OA
ENDROOT
BRANCH   1   3
ATOM      3  C   UNL     1       4.065  -4.231  -8.223  1.00  0.00     0.030 C 
ATOM      4  C   UNL     1       4.709  -4.279  -7.038  1.00  0.00    -0.016 C 
ATOM      5  C   UNL     1       4.688  -4.512  -9.560  1.00  0.00     0.052 C 
BRANCH   4   6
ATOM      6  C   UNL     1       6.147  -4.642  -6.807  1.00  0.00     0.031 C 
BRANCH   6   7
ATOM      7  C   UNL     1       6.478  -5.149  -5.398  1.00  0.00     0.043 C 
BRANCH   7   8
ATOM      8  C   UNL     1       6.762  -6.658  -5.213  1.00  0.00     0.080 C 
ATOM      9  C   UNL     1       7.435  -7.279  -6.445  1.00  0.00     0.047 C 
BRANCH   8  10
ATOM     10  C   UNL     1       7.442  -6.943  -3.894  1.00  0.00    -0.001 C 
ATOM     11  C   UNL     1       6.875  -7.058  -2.685  1.00  0.00     0.007 C 
ENDBRANCH   8  10
BRANCH   8  12
ATOM     12  O   UNL     1       5.471  -7.287  -5.119  1.00  0.00    -0.386 OA
ATOM     13  H   UNL     1       5.564  -8.030  -4.498  1.00  0.00     0.211 HD
ENDBRANCH   8  12
ENDBRANCH   7   8
ENDBRANCH   6   7
ENDBRANCH   4   6
ENDBRANCH   1   3
BRANCH   1  14
ATOM     14  O   UNL     1       2.245  -3.085  -7.252  1.00  0.00    -0.462 OA
BRANCH  14  15
ATOM     15  C   UNL     1       1.266  -2.082  -7.569  1.00  0.00     0.240 C 
BRANCH  15  16
ATOM     16  C   UNL     1       0.303  -1.882  -6.373  1.00  0.00     0.003 C 
ATOM     17  C   UNL     1      -0.102  -3.252  -5.800  1.00  0.00     0.015 C 
ATOM     18  C   UNL     1      -0.984  -1.180  -6.864  1.00  0.00     0.015 C 
BRANCH  16  19
ATOM     19  C   UNL     1       0.954  -0.978  -5.282  1.00  0.00     0.053 C 
BRANCH  19  20
ATOM     20  C   UNL     1       1.856  -1.655  -4.271  1.00  0.00     0.047 C 
ATOM     21  C   UNL     1       1.398  -2.223  -3.145  1.00  0.00     0.171 C 
ATOM     22  C   UNL     1       3.305  -1.755  -4.610  1.00  0.00     0.193 C 
ATOM     23  C   UNL     1       2.289  -2.906  -2.173  1.00  0.00     0.228 C 
ATOM     24  C   UNL     1       4.217  -2.396  -3.640  1.00  0.00     0.034 A 
ATOM     25  O   UNL     1       3.746  -1.322  -5.668  1.00  0.00    -0.289 OA
ATOM     26  O   UNL     1       1.800  -3.407  -1.165  1.00  0.00    -0.285 OA
ATOM     27  C   UNL     1       3.727  -2.949  -2.461  1.00  0.00     0.037 A 
ATOM     28  C   UNL     1       5.591  -2.452  -3.913  1.00  0.00     0.013 A 
ATOM     29  C   UNL     1       4.600  -3.554  -1.549  1.00  0.00     0.013 A 
ATOM     30  C   UNL     1       6.462  -3.056  -3.005  1.00  0.00     0.001 A 
ATOM     31  C   UNL     1       5.968  -3.605  -1.823  1.00  0.00     0.001 A 
BRANCH  21  32
ATOM     32  O   UNL     1       0.053  -2.189  -2.816  1.00  0.00    -0.504 OA
ATOM     33  H   UNL     1      -0.098  -1.299  -2.426  1.00  0.00     0.293 HD
ENDBRANCH  21  32
ENDBRANCH  19  20
ENDBRANCH  16  19
ENDBRANCH  15  16
ENDBRANCH  14  15
ENDBRANCH   1  14
TORSDOF 12
ENDMDL
MODEL 20
REMARK VINA RESULT:    -7.925      2.049      6.908
REMARK INTER + INTRA:         -13.869
REMARK INTER:                 -13.420
REMARK INTRA:                  -0.449
REMARK UNBOUND:                -0.848
REMARK SMILES C=C[C@@](C)(O)CC/C=C(\C)C(=O)OCC(C)(C)CC1=C(O)C(=O)c2ccccc2C1=O
REMARK SMILES IDX 11 1 12 2 9 3 8 4 10 5 7 6 6 7 3 8 4 9 2 10 1 11 5 12 13 14
REMARK SMILES IDX 14 15 15 16 16 17 17 18 18 19 19 20 20 21 30 22 22 23 29 24
REMARK SMILES IDX 31 25 23 26 24 27 28 28 25 29 27 30 26 31 21 32
REMARK H PARENT 5 13 21 33
ROOT
ATOM      1  C   UNL     1      -0.293  -2.030  -2.992  1.00  0.00     0.333 C 
ATOM      2  O   UNL     1      -1.146  -1.312  -2.488  1.00  0.00    -0.247 OA
ENDROOT
BRANCH   1   3
ATOM      3  C   UNL     1       0.814  -2.661  -2.207  1.00  0.00     0.030 C 
ATOM      4  C   UNL     1       2.106  -2.447  -2.532  1.00  0.00    -0.016 C 
ATOM      5  C   UNL     1       0.337  -3.525  -1.075  1.00  0.00     0.052 C 
BRANCH   4   6
ATOM      6  C   UNL     1       3.315  -2.993  -1.830  1.00  0.00     0.031 C 
BRANCH   6   7
ATOM      7  C   UNL     1       4.248  -3.848  -2.697  1.00  0.00     0.043 C 
BRANCH   7   8
ATOM      8  C   UNL     1       5.687  -4.102  -2.189  1.00  0.00     0.080 C 
ATOM      9  C   UNL     1       5.913  -3.541  -0.779  1.00  0.00     0.047 C 
BRANCH   8  10
ATOM     10  C   UNL     1       6.104  -5.541  -2.386  1.00  0.00    -0.001 C 
ATOM     11  C   UNL     1       7.320  -6.076  -2.203  1.00  0.00     0.007 C 
ENDBRANCH   8  10
BRANCH   8  12
ATOM     12  O   UNL     1       6.544  -3.336  -3.054  1.00  0.00    -0.386 OA
ATOM     13  H   UNL     1       6.156  -2.446  -3.121  1.00  0.00     0.211 HD
ENDBRANCH   8  12
ENDBRANCH   7   8
ENDBRANCH   6   7
ENDBRANCH   4   6
ENDBRANCH   1   3
BRANCH   1  14
ATOM     14  O   UNL     1      -0.239  -2.388  -4.301  1.00  0.00    -0.462 OA
BRANCH  14  15
ATOM     15  C   UNL     1      -0.445  -1.309  -5.228  1.00  0.00     0.240 C 
BRANCH  15  16
ATOM     16  C   UNL     1      -0.433  -1.846  -6.681  1.00  0.00     0.003 C 
ATOM     17  C   UNL     1      -1.715  -1.400  -7.407  1.00  0.00     0.015 C 
ATOM     18  C   UNL     1      -0.421  -3.391  -6.655  1.00  0.00     0.015 C 
BRANCH  16  19
ATOM     19  C   UNL     1       0.845  -1.370  -7.437  1.00  0.00     0.053 C 
BRANCH  19  20
ATOM     20  C   UNL     1       2.178  -1.890  -6.938  1.00  0.00     0.047 C 
ATOM     21  C   UNL     1       2.834  -1.345  -5.902  1.00  0.00     0.171 C 
ATOM     22  C   UNL     1       2.720  -3.116  -7.591  1.00  0.00     0.193 C 
ATOM     23  C   UNL     1       4.128  -1.877  -5.405  1.00  0.00     0.228 C 
ATOM     24  C   UNL     1       4.025  -3.641  -7.140  1.00  0.00     0.034 A 
ATOM     25  O   UNL     1       2.107  -3.689  -8.484  1.00  0.00    -0.289 OA
ATOM     26  O   UNL     1       4.671  -1.331  -4.449  1.00  0.00    -0.285 OA
ATOM     27  C   UNL     1       4.707  -3.041  -6.086  1.00  0.00     0.037 A 
ATOM     28  C   UNL     1       4.580  -4.760  -7.777  1.00  0.00     0.013 A 
ATOM     29  C   UNL     1       5.943  -3.548  -5.666  1.00  0.00     0.013 A 
ATOM     30  C   UNL     1       5.811  -5.266  -7.358  1.00  0.00     0.001 A 
ATOM     31  C   UNL     1       6.494  -4.660  -6.305  1.00  0.00     0.001 A 
BRANCH  21  32
ATOM     32  O   UNL     1       2.341  -0.232  -5.241  1.00  0.00    -0.504 OA
ATOM     33  H   UNL     1       2.670  -0.311  -4.318  1.00  0.00     0.293 HD
ENDBRANCH  21  32
ENDBRANCH  19  20
ENDBRANCH  16  19
ENDBRANCH  15  16
ENDBRANCH  14  15
ENDBRANCH   1  14
TORSDOF 12
ENDMDL
